 &FCI NORB=  26,NELEC=10,MS2=0,
  ORBSYM=1,1,1,1,1,1,1,1,1,1,1,1,1,1,1,1,1,1,1,1,1,1,1,1,1,1
  ISYM=1,
 &END
 0.9930847393990577    1    1    1    1
 0.1357527362651373    2    1    2    1
 0.7735822986613725    2    2    1    1
 0.7044967418771098    2    2    2    2
 0.1357527362651373    3    1    3    1
 0.03169565840987511    3    2    3    2
 0.7735822986613724    3    3    1    1
 0.6411054250573596    3    3    2    2
 0.7044967418771098    3    3    3    3
 0.02693248193174688    4    1    4    1
 0.03486577788624633    4    2    4    2
 0.03486577788624632    4    3    4    3
 0.5663846017169867    4    4    1    1
 0.5399635706536439    4    4    2    2
 0.5399635706536439    4    4    3    3
 0.5595031232200032    4    4    4    4
 -0.1643155463755352    5    1    1    1
 -0.07973462852794246    5    1    2    2
 -0.0797346285279425    5    1    3    3
 -0.02031089192486237    5    1    4    4
 0.06282508961186881    5    1    5    1
 0.01668684784634286    5    2    2    1
 0.02769808719816224    5    2    5    2
 0.01668684784634286    5    3    3    1
 0.02769808719816225    5    3    5    3
 0.06263982001395428    5    4    4    1
 0.213277361913604    5    4    5    4
 0.6355904237956461    5    5    1    1
 0.5691820088095664    5    5    2    2
 0.5691820088095665    5    5    3    3
 0.5675012095202503    5    5    4    4
 -0.050571634163286    5    5    5    1
 0.5918929580630357    5    5    5    5
 0.02169672795930386    6    1    4    3
 0.01660104185131811    6    1    6    1
 0.009785602086611089    6    2    6    2
 0.04439388895823494    6    3    4    1
 0.1094531141974319    6    3    5    4
 0.08729241323601744    6    3    6    3
 0.05950108793167744    6    4    3    1
 0.03592041641092106    6    4    5    3
 0.06376463161851921    6    4    6    4
 0.03208179890742337    6    5    4    3
 0.01720789079917392    6    5    6    1
 0.03744321115698855    6    5    6    5
 0.5037897437255149    6    6    1    1
 0.4630761699487953    6    6    2    2
 0.4948867260989795    6    6    3    3
 0.4543244570290896    6    6    4    4
 -0.01999242317637741    6    6    5    1
 0.4606641505880874    6    6    5    5
 0.4248560106580919    6    6    6    6
 0.02169672795930376    7    1    4    2
 0.01660104185131793    7    1    7    1
 0.04439388895823473    7    2    4    1
 0.1094531141974316    7    2    5    4
 0.06772120906279509    7    2    6    3
 0.08729241323601677    7    2    7    2
 0.009785602086611053    7    3    6    2
 0.009785602086611013    7    3    7    3
 0.0595010879316773    7    4    2    1
 0.03592041641092101    7    4    5    2
 0.06376463161851911    7    4    7    4
 0.03208179890742333    7    5    4    2
 0.01720789079917388    7    5    7    1
 0.03744321115698856    7    5    7    5
 0.01590527807509201    7    6    3    2
 0.01682230301658273    7    6    7    6
 0.503789743725513    7    7    1    1
 0.494886726098978    7    7    2    2
 0.463076169948794    7    7    3    3
 0.4543244570290889    7    7    4    4
 -0.01999242317637713    7    7    5    1
 0.4606641505880866    7    7    5    5
 0.391211404624926    7    7    6    6
 0.424856010658091    7    7    7    7
 -0.01238813285617609    8    1    4    1
 -0.02303518350616171    8    1    5    4
 -0.01998658437368632    8    1    6    3
 -0.01998658437368633    8    1    7    2
 0.006831902871203023    8    1    8    1
 -0.01530156001530217    8    2    4    2
 -0.01016156720499849    8    2    7    1
 -0.01113414292321688    8    2    7    5
 0.008078266714651004    8    2    8    2
 -0.01530156001530213    8    3    4    3
 -0.0101615672049985    8    3    6    1
 -0.01113414292321689    8    3    6    5
 0.008078266714650858    8    3    8    3
 -0.1122921968819207    8    4    1    1
 -0.09831929220645472    8    4    2    2
 -0.09831929220645481    8    4    3    3
 -0.07837679124544265    8    4    4    4
 0.01275070297644532    8    4    5    1
 -0.08360955786406278    8    4    5    5
 -0.05359475602487906    8    4    6    6
 -0.0535947560248799    8    4    7    7
 0.03967568482105089    8    4    8    4
 -0.01082792491971784    8    5    4    1
 -0.02752019942937798    8    5    5    4
 -0.01831095210536106    8    5    6    3
 -0.018310952105361    8    5    7    2
 1.895299280252137e-15    8    5    7    7
 0.008032240483149881    8    5    8    1
 4.102180506496968e-15    8    5    8    4
 0.02401002783858939    8    5    8    5
 -0.01875267715273982    8    6    3    1
 -0.006042165017094695    8    6    5    3
 -0.007508921850142144    8    6    6    4
 -4.199880101794023e-15    8    6    8    3
 0.01341249157435392    8    6    8    6
 -0.01875267715273966    8    7    2    1
 -0.006042165017094622    8    7    5    2
 -0.007508921850142051    8    7    7    4
 -5.58228206840782e-15    8    7    8    2
 0.01341249157436154    8    7    8    7
 0.3454237129224457    8    8    1    1
 0.3376793357472363    8    8    2    2
 0.3376793357472325    8    8    3    3
 -2.905160687328014e-15    8    8    4    1
 0.3627250975997847    8    8    4    4
 -0.003794551338354899    8    8    5    1
 -2.268772269037484e-15    8    8    5    4
 0.3628927308535264    8    8    5    5
 -4.713217918066394e-15    8    8    6    3
 0.3227278692978373    8    8    6    6
 -1.007190150841462e-14    8    8    7    2
 0.32272786929787    8    8    7    7
 -2.453126311984678e-14    8    8    8    1
 -0.0006282353169818691    8    8    8    4
 6.089128562053594e-14    8    8    8    5
 0.3519157423714472    8    8    8    8
 0.08513803343521771    9    1    1    1
 0.03481805752756615    9    1    2    2
 0.03481805752756618    9    1    3    3
 0.0188058408335035    9    1    4    4
 -0.03643645939876654    9    1    5    1
 0.03679011444113267    9    1    5    5
 0.01139498147597885    9    1    6    6
 0.01139498147597865    9    1    7    7
 -0.004873306355523514    9    1    8    4
 0.01010567669946607    9    1    8    8
 0.02622954260799153    9    1    9    1
 -0.02120511215340827    9    2    2    1
 -0.01375538953120014    9    2    5    2
 -0.01722808156070525    9    2    7    4
 0.006472975860431561    9    2    8    7
 0.01434106429178554    9    2    9    2
 -0.02120511215340828    9    3    3    1
 -0.01375538953120014    9    3    5    3
 -0.01722808156070529    9    3    6    4
 0.00647297586043153    9    3    8    6
 0.01434106429178553    9    3    9    3
 0.0002897094238899436    9    4    4    1
 0.01392233331105036    9    4    5    4
 0.0004922281148753631    9    4    6    3
 0.0004922281148754733    9    4    7    2
 0.004242034019425559    9    4    8    1
 0.01853927067983499    9    4    8    5
 1.358653275187645e-14    9    4    8    8
 0.02198910374862168    9    4    9    4
 -0.1351553784569661    9    5    1    1
 -0.09525305770792024    9    5    2    2
 -0.09525305770792028    9    5    3    3
 -0.04791064991950055    9    5    4    4
 0.03259757773712669    9    5    5    1
 -0.06366385065495576    9    5    5    5
 -0.03935362696313079    9    5    6    6
 -0.03935362696313039    9    5    7    7
 0.03379399695809424    9    5    8    4
 1.273874956106412e-15    9    5    8    5
 0.008763293090044647    9    5    8    8
 -0.01406558616440152    9    5    9    1
 0.04095585492879114    9    5    9    5
 -0.001897825832917697    9    6    4    3
 -0.001207820223198163    9    6    6    1
 0.003286232568947655    9    6    6    5
 0.00402189628369433    9    6    8    3
 0.009958185054353268    9    6    9    6
 -0.001897825832917651    9    7    4    2
 -0.001207820223198125    9    7    7    1
 0.003286232568947748    9    7    7    5
 0.004021896283694404    9    7    8    2
 0.009958185054353291    9    7    9    7
 -1.002355986750616e-15    9    8    1    1
 0.02825029138015163    9    8    4    1
 -1.316530214506472e-15    9    8    4    4
 0.1021305313134971    9    8    5    4
 0.05100277650454406    9    8    6    3
 3.187125814602539e-15    9    8    6    6
 0.0510027765045444    9    8    7    2
 4.929815140438023e-15    9    8    7    7
 -0.004382517470451411    9    8    8    1
 0.02081969938835521    9    8    8    5
 2.677031536603768e-14    9    8    8    8
 0.03800381827773875    9    8    9    4
 1.653673479854956e-15    9    8    9    5
 0.1181813774288816    9    8    9    8
 0.4298009564446862    9    9    1    1
 0.4004219523029958    9    9    2    2
 0.4004219523029957    9    9    3    3
 0.3893899712958469    9    9    4    4
 -0.02129614029160688    9    9    5    1
 0.3988090298196566    9    9    5    5
 0.3536702879291168    9    9    6    6
 0.3536702879291159    9    9    7    7
 -0.01710772509937476    9    9    8    4
 2.466824426815074e-15    9    9    8    5
 0.338358887747084    9    9    8    8
 0.01351849795993357    9    9    9    1
 -0.01405763735720967    9    9    9    5
 4.261203552854709e-15    9    9    9    8
 0.3537796520444696    9    9    9    9
 0.05186520507989146   10    1    2    1
 -0.005190371459232057   10    1    5    2
 0.01094868352088668   10    1    7    4
 -0.007647326387315697   10    1    8    7
 0.001539280232746166   10    1    9    2
 0.03072913368447257   10    1   10    1
 0.1896109213957259   10    2    1    1
 0.1376619742978955   10    2    2    2
 0.1244941199825057   10    2    3    3
 0.07974036232338089   10    2    4    4
 -0.04530826542657379   10    2    5    1
 0.09697073936532132   10    2    5    5
 0.05626298330554563   10    2    6    6
 0.05391625588900086   10    2    7    7
 -0.0317845190237598   10    2    8    4
 0.02505468299294789   10    2    8    8
 0.02739939340751209   10    2    9    1
 -0.03475833625426445   10    2    9    5
 0.0345930705510302   10    2    9    9
 0.07301272651215368   10    2   10    2
 0.006583927157694906   10    3    3    2
 -0.001173363708272177   10    3    7    6
 0.007765313228366031   10    3   10    3
 0.0006093354198083969   10    4    4    2
 0.0005068973681163435   10    4    7    1
 -0.006569645278865737   10    4    7    5
 -0.003087430625495837   10    4    8    2
 -0.00504181552898421   10    4    9    7
 0.009633820677247176   10    4   10    4
 -0.02903010424167671   10    5    2    1
 -0.005651248836829144   10    5    5    2
 -0.02015887748814329   10    5    7    4
 -0.002337053662095949   10    5    8    7
 0.005479095238743371   10    5    9    2
 -0.005521434887399122   10    5   10    1
 0.01713440778604162   10    5   10    5
 -0.001441454802088178   10    6    6    2
 -0.001441454802088199   10    6    7    3
 0.006744408379895095   10    6   10    6
 -0.002494967879205856   10    7    4    1
 -0.02154590945546547   10    7    5    4
 -0.006451657394131216   10    7    6    3
 -0.009334566998307764   10    7    7    2
 -0.003314912499489071   10    7    8    1
 -0.01203912280940835   10    7    8    5
 -3.033454302422811e-14   10    7    8    8
 -0.01554613367217391   10    7    9    4
 -0.03323356719732751   10    7    9    8
 0.03823840088107877   10    7   10    7
 -0.007949884098493008   10    8    4    2
 -0.005006410379912892   10    8    7    1
 -0.009047293084837125   10    8    7    5
 0.001940418574730346   10    8    8    2
 5.906514925186981e-15   10    8    8    7
 -0.005153615216895739   10    8    9    7
 0.001256188932128704   10    8   10    4
 0.005809361733936435   10    8   10    8
 0.02226940509715942   10    9    2    1
 0.001899489810580377   10    9    5    2
 0.005589972949301065   10    9    7    4
 -0.00683956115472077   10    9    8    7
 -0.009364232344125827   10    9    9    2
 0.0038503441100674   10    9   10    1
 -0.008044793021362098   10    9   10    5
 0.01586882359909696   10    9   10    9
 0.5186243060512543   10   10    1    1
 0.4888619130002758   10   10    2    2
 0.4562175399921464   10   10    3    3
 0.4099220478140698   10   10    4    4
 -0.03726125046691425   10   10    5    1
 0.4252431334507076   10   10    5    5
 0.3700413747251589   10   10    6    6
 0.3983249710888235   10   10    7    7
 -0.05072429978949231   10   10    8    4
 0.2951385196887677   10   10    8    8
 0.01499720472721272   10   10    9    1
 -0.05063503308543069   10   10    9    5
 0.3402201927981454   10   10    9    9
 0.0527255208052635   10   10   10    2
 0.4082696572193005   10   10   10   10
 0.05186520507989135   11    1    3    1
 -0.005190371459232057   11    1    5    3
 0.01094868352088674   11    1    6    4
 -0.007647326387315752   11    1    8    6
 0.001539280232746185   11    1    9    3
 0.03072913368447248   11    1   11    1
 0.006583927157694892   11    2    3    2
 -0.001173363708272181   11    2    7    6
 0.007765313228366029   11    2   10    3
 0.007765313228366026   11    2   11    2
 0.1896109213957258   11    3    1    1
 0.1244941199825055   11    3    2    2
 0.1376619742978953   11    3    3    3
 0.07974036232338086   11    3    4    4
 -0.04530826542657374   11    3    5    1
 0.09697073936532127   11    3    5    5
 0.05391625588900133   11    3    6    6
 0.05626298330554513   11    3    7    7
 -0.0317845190237599   11    3    8    4
 0.02505468299295339   11    3    8    8
 0.02739939340751209   11    3    9    1
 -0.03475833625426438   11    3    9    5
 0.03459307055103015   11    3    9    9
 0.0574821000554216   11    3   10    2
 0.05718593069574936   11    3   10   10
 0.07301272651215361   11    3   11    3
 0.0006093354198084488   11    4    4    3
 0.0005068973681164007   11    4    6    1
 -0.006569645278865644   11    4    6    5
 -0.003087430625495919   11    4    8    3
 -0.005041815528984184   11    4    9    6
 0.009633820677247173   11    4   11    4
 -0.02903010424167663   11    5    3    1
 -0.005651248836829096   11    5    5    3
 -0.02015887748814319   11    5    6    4
 -0.002337053662095911   11    5    8    6
 0.005479095238743367   11    5    9    3
 -0.005521434887399073   11    5   11    1
 0.01713440778604161   11    5   11    5
 -0.002494967879205651   11    6    4    1
 -0.02154590945546489   11    6    5    4
 -0.009334566998307278   11    6    6    3
 -0.006451657394131016   11    6    7    2
 -0.003314912499489222   11    6    8    1
 1.293060810150201e-15   11    6    8    4
 -0.01203912280940833   11    6    8    5
 -3.263764249478964e-14   11    6    8    8
 -0.01554613367217392   11    6    9    4
 -0.03323356719732762   11    6    9    8
 0.02474958412128843   11    6   10    7
 0.03823840088107862   11    6   11    6
 -0.001441454802088204   11    7    6    2
 -0.001441454802088224   11    7    7    3
 0.006744408379895101   11    7   10    6
 0.006744408379895102   11    7   11    7
 -0.007949884098493065   11    8    4    3
 -0.005006410379912962   11    8    6    1
 -0.009047293084837184   11    8    6    5
 0.001940418574731189   11    8    8    3
 7.279281311561134e-15   11    8    8    6
 -0.00515361521689583   11    8    9    6
 0.001256188932128625   11    8   11    4
 0.005809361733934829   11    8   11    8
 0.02226940509715944   11    9    3    1
 0.001899489810580392   11    9    5    3
 0.005589972949301106   11    9    6    4
 -0.006839561154721179   11    9    8    6
 -0.009364232344125848   11    9    9    3
 0.003850344110067376   11    9   11    1
 -0.008044793021362096   11    9   11    5
 0.01586882359909698   11    9   11    9
 0.01632218650406471   11   10    3    2
 0.01414179818183254   11   10    7    6
 -0.00223020494524295   11   10   10    3
 -0.002230204945242957   11   10   11    2
 0.01897333100698674   11   10   11   10
 0.5186243060512543   11   11    1    1
 0.4562175399921464   11   11    2    2
 0.4888619130002758   11   11    3    3
 0.4099220478140697   11   11    4    4
 -0.03726125046691421   11   11    5    1
 0.4252431334507074   11   11    5    5
 0.3983249710888241   11   11    6    6
 0.3700413747251585   11   11    7    7
 -0.05072429978949179   11   11    8    4
 0.2951385196887655   11   11    8    8
 0.01499720472721276   11   11    9    1
 -0.05063503308543073   11   11    9    5
 -1.572704456545539e-15   11   11    9    8
 0.3402201927981451   11   11    9    9
 0.05718593069574937   11   11   10    2
 0.3703229952053269   11   11   10   10
 0.05272552080526333   11   11   11    3
 0.4082696572193004   11   11   11   11
 -0.09446872659619576   12    1    1    1
 -0.06167745093368584   12    1    2    2
 -0.06167745093368585   12    1    3    3
 -0.04390337472408548   12    1    4    4
 0.02359650654322148   12    1    5    1
 -0.05264843913754946   12    1    5    5
 -0.02784222401149517   12    1    6    6
 -0.02784222401149488   12    1    7    7
 0.01642783985328975   12    1    8    4
 -0.01384557907178916   12    1    8    8
 -0.0168692509367834   12    1    9    1
 0.01651142298480569   12    1    9    5
 -0.01606624257900287   12    1    9    9
 -0.03404560309668606   12    1   10    2
 -0.02547365175999041   12    1   10   10
 -0.03404560309668604   12    1   11    3
 -0.0254736517599904   12    1   11   11
 0.02029033224269099   12    1   12    1
 -0.004585665665323264   12    2    2    1
 0.001012441653209136   12    2    5    2
 -0.0003547854399890535   12    2    7    4
 0.005683047895818697   12    2    8    7
 -0.007260951469448325   12    2    9    2
 -0.01290324297671897   12    2   10    1
 -0.009965987325898191   12    2   10    5
 0.008307385979518619   12    2   10    9
 0.02031291256316393   12    2   12    2
 -0.004585665665323266   12    3    3    1
 0.001012441653209139   12    3    5    3
 -0.0003547854399891118   12    3    6    4
 0.005683047895818758   12    3    8    6
 -0.007260951469448322   12    3    9    3
 -0.01290324297671897   12    3   11    1
 -0.009965987325898202   12    3   11    5
 0.008307385979518632   12    3   11    9
 0.02031291256316391   12    3   12    3
 -0.02739742600704302   12    4    4    1
 -0.09020709361355281   12    4    5    4
 -0.04501143864418212   12    4    6    3
 -0.04501143864418186   12    4    7    2
 0.01393605403374745   12    4    8    1
 0.03005823477655345   12    4    8    5
 -6.547996671128386e-15   12    4    8    8
 0.01182684027388173   12    4    9    4
 -0.01480305579035191   12    4    9    8
 -0.01644419120364231   12    4   10    7
 -0.01644419120364256   12    4   11    6
 0.06607014630310562   12    4   12    4
 -0.07569657132992752   12    5    1    1
 -0.0731802184649754   12    5    2    2
 -0.07318021846497538   12    5    3    3
 -0.1036844316903155   12    5    4    4
 0.003759381575711004   12    5    5    1
 -0.1064650923017021   12    5    5    5
 -0.04827932633367031   12    5    6    6
 -0.04827932633366978   12    5    7    7
 0.03519240678494072   12    5    8    4
 -1.093134995132558e-15   12    5    8    5
 -0.02741120896473364   12    5    8    8
 -0.008131471872464978   12    5    9    1
 0.02000477325873226   12    5    9    5
 -1.488577657338357e-15   12    5    9    8
 -0.0249524028074276   12    5    9    9
 -0.03348298011630842   12    5   10    2
 -0.03041498153509901   12    5   10   10
 -0.03348298011630845   12    5   11    3
 -0.03041498153509896   12    5   11   11
 0.01984566567914691   12    5   12    1
 0.06163137305852472   12    5   12    5
 -0.003532718884957642   12    6    4    3
 -0.0007212281551523553   12    6    6    1
 0.003638327511561114   12    6    6    5
 0.004442407109008929   12    6    8    3
 0.005330685102516635   12    6    9    6
 -0.01189393921261327   12    6   11    4
 -0.001156003843257339   12    6   11    8
 0.0176578595822275   12    6   12    6
 -0.003532718884957537   12    7    4    2
 -0.0007212281551522475   12    7    7    1
 0.003638327511561239   12    7    7    5
 0.004442407109008895   12    7    8    2
 0.005330685102516618   12    7    9    7
 -0.01189393921261325   12    7   10    4
 -0.001156003843257696   12    7   10    8
 0.01765785958222753   12    7   12    7
 0.02368902031641973   12    8    4    1
 0.080209288674638   12    8    5    4
 0.04128676771128705   12    8    6    3
 4.154859602886566e-15   12    8    6    6
 0.04128676771128646   12    8    7    2
 4.810477601231165e-15   12    8    7    7
 -0.007633960800760379   12    8    8    1
 6.193004464613631e-15   12    8    8    4
 -0.002834031706482881   12    8    8    5
 8.259684767400711e-14   12    8    8    8
 0.01197615695359491   12    8    9    4
 -1.277335590379431e-15   12    8    9    5
 0.05666506713439476   12    8    9    8
 3.606304635594572e-15   12    8    9    9
 -0.00915361091714462   12    8   10    7
 -0.009153610917144556   12    8   11    6
 -0.03189661968202927   12    8   12    4
 0.03788785181907107   12    8   12    8
 -0.03148342314529752   12    9    1    1
 -0.02563649897285301   12    9    2    2
 -0.02563649897285315   12    9    3    3
 0.012352049545406   12    9    4    4
 0.005414682357958807   12    9    5    1
 0.009704930388072169   12    9    5    5
 -0.004585749730487593   12    9    6    6
 -0.004585749730487165   12    9    7    7
 0.007985419531155039   12    9    8    4
 0.02498942908247642   12    9    8    8
 0.00620242717411437   12    9    9    1
 0.01483123050050152   12    9    9    5
 -2.639263987272931e-15   12    9    9    8
 0.003409111169968008   12    9    9    9
 0.004211965268035739   12    9   10    2
 -0.0224785550281438   12    9   10   10
 0.004211965268035652   12    9   11    3
 -0.02247855502814389   12    9   11   11
 -0.005402407955662364   12    9   12    1
 -0.01566670158086529   12    9   12    5
 -2.229429134761386e-15   12    9   12    8
 0.02604939336614553   12    9   12    9
 -0.05759188593273548   12   10    2    1
 -0.02624241161857448   12   10    5    2
 -0.0492117341489656   12   10    7    4
 0.00412564555075709   12   10    8    7
 0.02106141925805627   12   10    9    2
 -0.006572518502924637   12   10   10    1
 0.0251333293343046   12   10   10    5
 -0.01817864918542635   12   10   10    9
 -0.01327037967273646   12   10   12    2
 0.05988466892321156   12   10   12   10
 -0.05759188593273554   12   11    3    1
 -0.0262424116185745   12   11    5    3
 -0.04921173414896567   12   11    6    4
 0.004125645550757323   12   11    8    6
 0.02106141925805629   12   11    9    3
 -0.006572518502924614   12   11   11    1
 0.02513332933430458   12   11   11    5
 -0.01817864918542638   12   11   11    9
 -0.01327037967273648   12   11   12    3
 0.05988466892321161   12   11   12   11
 0.5278916410071967   12   12    1    1
 0.5000424458103047   12   12    2    2
 0.5000424458103045   12   12    3    3
 0.4787895428854297   12   12    4    4
 -0.02396014775054831   12   12    5    1
 0.489755840487672   12   12    5    5
 0.4139789537046814   12   12    6    6
 0.4139789537046807   12   12    7    7
 -0.06767876243710931   12   12    8    4
 1.766670094539975e-15   12   12    8    5
 0.3226714359262124   12   12    8    8
 0.01093781899208751   12   12    9    1
 -0.05375969876223032   12   12    9    5
 0.3617437545455478   12   12    9    9
 0.06051187180576367   12   12   10    2
 0.4005910489961498   12   12   10   10
 0.06051187180576351   12   12   11    3
 0.4005910489961496   12   12   11   11
 -0.02949747880241911   12   12   12    1
 -0.06935910763021148   12   12   12    5
 1.168791385637795e-15   12   12   12    8
 -0.01002627064931163   12   12   12    9
 0.4458742881073779   12   12   12   12
 0.0203327867069584   13    1    4    3
 0.01690481062687389   13    1    6    1
 0.01148901781921819   13    1    6    5
 -0.01099934598171633   13    1    8    3
 -0.002543606066716236   13    1    9    6
 0.005830931650876563   13    1   11    4
 -0.004489491526425994   13    1   11    8
 -0.007464734561478473   13    1   12    6
 0.02123373667979717   13    1   13    1
 0.008060538913038089   13    2    6    2
 0.008060538913038038   13    2    7    3
 0.003706770053273091   13    2   10    6
 0.003706770053273065   13    2   11    7
 0.01046744158124414   13    2   13    2
 0.04179654287513392   13    3    4    1
 0.09428895371086585   13    3    5    4
 0.07861975915494383   13    3    6    3
 0.06249868132886722   13    3    7    2
 -0.02185712917360438   13    3    8    1
 -0.02658608325990152   13    3    8    5
 -5.361861476097162e-15   13    3    8    8
 -0.00999391621988609   13    3    9    4
 0.02783581809524632   13    3    9    8
 0.01217479828889479   13    3   10    7
 0.01958833839544123   13    3   11    6
 -0.05848406685424089   13    3   12    4
 0.03592355264425433   13    3   12    8
 0.09262047152480866   13    3   13    3
 0.0396343802817793   13    4    3    1
 0.01991326318213555   13    4    5    3
 0.03152709378393469   13    4    6    4
 -0.01582029217802689   13    4    8    6
 -0.009411165336647122   13    4    9    3
 0.01593111686321134   13    4   11    1
 0.000671292723720109   13    4   11    5
 0.002686190963477263   13    4   11    9
 -0.01564507460213285   13    4   12    3
 -0.01560279151343743   13    4   12   11
 0.03478947066609804   13    4   13    4
 0.01993037853720193   13    5    4    3
 0.008393566429163489   13    5    6    1
 0.01724710578612772   13    5    6    5
 -0.01004097958149303   13    5    8    3
 -0.00559777258308471   13    5    9    6
 0.006452186456093419   13    5   11    4
 -0.002205846852858962   13    5   11    8
 -0.01253773895235545   13    5   12    6
 0.009701922269148009   13    5   13    1
 0.02157413435377214   13    5   13    5
 0.192678750052373   13    6    1    1
 0.1498711013633548   13    6    2    2
 0.1672398491533264   13    6    3    3
 0.1244507210236872   13    6    4    4
 -0.02833335058822008   13    6    5    1
 0.1343867807067439   13    6    5    5
 0.08417353130623201   13    6    6    6
 0.08152503236586121   13    6    7    7
 -0.0473479826619135   13    6    8    4
 1.516583410368159e-15   13    6    8    5
 0.0330977996082745   13    6    8    8
 0.01654072645424945   13    6    9    1
 -0.0403116185003836   13    6    9    5
 1.275449484600861e-15   13    6    9    8
 0.04745745938918589   13    6    9    9
 0.05567670896559782   13    6   10    2
 0.07460057915895377   13    6   10   10
 0.06738411974597509   13    6   11    3
 0.07239668462342301   13    6   11   11
 -0.03190439019464526   13    6   12    1
 -0.05040263068191184   13    6   12    5
 -4.119813006770207e-15   13    6   12    8
 -0.0003822200817553152   13    6   12    9
 0.09537404117610321   13    6   12   12
 0.08719520996104932   13    6   13    6
 0.008684373894985704   13    7    3    2
 0.001324249470185095   13    7    7    6
 0.005853705390188656   13    7   10    3
 0.005853705390188659   13    7   11    2
 -0.001101947267765357   13    7   11   10
 0.008916253970273147   13    7   13    7
 -0.03167999020477305   13    8    3    1
 -0.01739130462030261   13    8    5    3
 -0.03290838754430293   13    8    6    4
 -0.0005895756503389361   13    8    8    6
 0.006856753837774478   13    8    9    3
 -0.007883236458896279   13    8   11    1
 0.009733758791650162   13    8   11    5
 -7.330978729580437e-15   13    8   11    8
 0.001025902217176664   13    8   11    9
 0.002776777315907024   13    8   12    3
 0.02552017267654786   13    8   12   11
 -0.01560099140996464   13    8   13    4
 0.02221869321769719   13    8   13    8
 -0.009803217670021364   13    9    4    3
 -0.004722554125886085   13    9    6    1
 -0.01283553307909866   13    9    6    5
 0.002163722449693298   13    9    8    3
 -0.005471400968115264   13    9    9    6
 0.002794846751510375   13    9   11    4
 0.006494732452152358   13    9   11    8
 -0.002774217791893364   13    9   12    6
 -0.002296479556286673   13    9   13    1
 -0.003927568791563444   13    9   13    5
 0.008917323309824541   13    9   13    9
 0.006516639172279074   13   10    6    2
 0.006516639172279045   13   10    7    3
 -0.002007336285728611   13   10   10    6
 -0.00200733628572864   13   10   11    7
 0.005084042380953636   13   10   13    2
 0.007009890666427657   13   10   13   10
 0.03342746684463266   13   11    4    1
 0.0829779066764734   13   11    5    4
 0.06680152796315791   13   11    6    3
 0.05376824961859965   13   11    7    2
 -0.01453216797158283   13   11    8    1
 -0.009717577370536674   13   11    8    5
 3.055971128308431e-15   13   11    8    8
 0.003748677551795701   13   11    9    4
 0.04789587439289775   13   11    9    8
 -0.006527418468390014   13   11   10    7
 -0.0105420910398471   13   11   11    6
 -0.03322779649207083   13   11   12    4
 0.03646390812868008   13   11   12    8
 0.05991076489048833   13   11   13    3
 0.06307134571415543   13   11   13   11
 -0.02861292035537986   13   12    4    3
 -0.01680198981604791   13   12    6    1
 -0.02881761659929648   13   12    6    5
 0.01123232148756945   13   12    8    3
 -0.001785820835261501   13   12    9    6
 0.0008929315041404448   13   12   11    4
 0.009430277321043758   13   12   11    8
 0.0005488568323527232   13   12   12    6
 -0.01485314853165135   13   12   13    1
 -0.01545051497561216   13   12   13    5
 0.01104032578173154   13   12   13    9
 0.02959535503554475   13   12   13   12
 0.5952657965361708   13   13    1    1
 0.524259223223406   13   13    2    2
 0.5594325323843214   13   13    3    3
 0.4921994088500616   13   13    4    4
 -0.04417511799913197   13   13    5    1
 0.5080607751013372   13   13    5    5
 0.442767919766048   13   13    6    6
 0.4140481772078343   13   13    7    7
 -0.07501092840859958   13   13    8    4
 -2.586649726069138e-15   13   13    8    5
 0.3296713586557214   13   13    8    8
 0.02672563738546744   13   13    9    1
 -0.06254628806634047   13   13    9    5
 -2.289445409811549e-15   13   13    9    8
 0.3636779504577534   13   13    9    9
 0.09107162013152378   13   13   10    2
 0.3966869527947424   13   13   10   10
 0.09797888303338917   13   13   11    3
 0.4223825345894634   13   13   11   11
 -0.0486512162525554   13   13   12    1
 -0.07585459820689487   13   13   12    5
 2.543889977039414e-15   13   13   12    8
 -0.0003160000811816405   13   13   12    9
 0.4461639868144025   13   13   12   12
 0.1256993570734359   13   13   13    6
 0.4990869429009432   13   13   13   13