 &FCI NORB=  26,NELEC=10,MS2=0,
  ORBSYM=1,1,1,1,1,1,1,1,1,1,1,1,1,1,1,1,1,1,1,1,1,1,1,1,1,1
  ISYM=1,
 &END
 0.4425119814322045    1    1    1    1
 0.2509086692157632    2    1    2    1
 0.4430012535952073    2    2    1    1
 0.446060680907286    2    2    2    2
 -0.0122834986134406    3    1    1    1
 0.0007858299856419776    3    1    2    2
 0.07014275258441378    3    1    3    1
 0.04377546166189634    3    2    2    1
 0.06463607128822611    3    2    3    2
 0.4194552302798693    3    3    1    1
 0.4184785339498611    3    3    2    2
 -0.0131381052510902    3    3    3    1
 0.4243898650971797    3    3    3    3
 0.06733615627132873    4    1    4    1
 0.06405266810649395    4    2    4    2
 0.001072151275857462    4    3    4    1
 0.01664331728930861    4    3    4    3
 0.4169180207851488    4    4    1    1
 0.4177452378736786    4    4    2    2
 -0.009593952265106221    4    4    3    1
 0.3871310774578702    4    4    3    3
 0.4174865927038789    4    4    4    4
 0.06733615627132872    5    1    5    1
 0.06405266810649395    5    2    5    2
 0.001072151275857461    5    3    5    1
 0.01664331728930861    5    3    5    3
 0.01624544535979845    5    4    5    4
 0.4169180207851488    5    5    1    1
 0.4177452378736785    5    5    2    2
 -0.009593952265106221    5    5    3    1
 0.3871310774578702    5    5    3    3
 0.384995701984282    5    5    4    4
 0.4174865927038789    5    5    5    5
 0.06410030062405711    6    1    5    2
 0.06419353276835689    6    1    6    1
 0.06848090876179569    6    2    5    1
 0.003302658068646709    6    2    5    3
 0.06999236821206226    6    2    6    2
 0.005864111906272929    6    3    5    2
 0.005044552448635217    6    3    6    1
 0.01560306865059868    6    3    6    3
 0.01637281392366209    6    4    6    4
 0.2306701429762061    6    5    2    1
 0.03777221701381109    6    5    3    2
 0.2359445635294559    6    5    6    5
 0.4208204616446166    6    6    1    1
 0.4224459316235556    6    6    2    2
 -0.006136818267919184    6    6    3    1
 0.3894944990025182    6    6    3    3
 0.3883249028898472    6    6    4    4
 0.4215652093411421    6    6    5    5
 0.4260994285586109    6    6    6    6
 0.06410030062405711    7    1    4    2
 0.06419353276835688    7    1    7    1
 0.06848090876179569    7    2    4    1
 0.00330265806864671    7    2    4    3
 0.06999236821206226    7    2    7    2
 0.00586411190627293    7    3    4    2
 0.005044552448635217    7    3    7    1
 0.01560306865059868    7    3    7    3
 0.2306701429762061    7    4    2    1
 0.03777221701381109    7    4    3    2
 0.2031989356821317    7    4    6    5
 0.235944563529456    7    4    7    4
 0.01637281392366209    7    5    6    4
 0.01637281392366209    7    5    7    5
 0.01662015322564747    7    6    5    4
 0.01705020051332418    7    6    7    6
 0.4208204616446167    7    7    1    1
 0.4224459316235558    7    7    2    2
 -0.006136818267919179    7    7    3    1
 0.3894944990025183    7    7    3    3
 0.4215652093411422    7    7    4    4
 0.3883249028898472    7    7    5    5
 0.3919990275319626    7    7    6    6
 0.4260994285586111    7    7    7    7
 -0.009745772417288811    8    1    2    1
 0.05923496554311821    8    1    3    2
 -0.01119717805954592    8    1    6    5
 -0.01119717805954592    8    1    7    4
 0.06561005715887999    8    1    8    1
 -0.02324329147383604    8    2    1    1
 -0.01082974461873671    8    2    2    2
 0.06967980640118933    8    2    3    1
 -0.01690692951533715    8    2    3    3
 -0.02083561076485951    8    2    4    4
 -0.02083561076485951    8    2    5    5
 -0.01805098318747393    8    2    6    6
 -0.01805098318747393    8    2    7    7
 0.0718068496075087    8    2    8    2
 0.2222877158758213    8    3    2    1
 0.03822788179949931    8    3    3    2
 0.1956011156991229    8    3    6    5
 0.1956011156991229    8    3    7    4
 -0.009823128630110646    8    3    8    1
 0.2192535076871112    8    3    8    3
 -0.005026280909250985    8    4    4    2
 -0.005905204298442411    8    4    7    1
 0.01553090621121188    8    4    7    3
 0.01741928754086373    8    4    8    4
 -0.005026280909250984    8    5    5    2
 -0.005905204298442409    8    5    6    1
 0.01553090621121188    8    5    6    3
 0.01741928754086373    8    5    8    5
 -0.007001862375408827    8    6    5    1
 0.01659180271653238    8    6    5    3
 -0.00508034385973051    8    6    6    2
 0.01814988418211119    8    6    8    6
 -0.007001862375408827    8    7    4    1
 0.01659180271653239    8    7    4    3
 -0.005080343859730511    8    7    7    2
 0.01814988418211119    8    7    8    7
 0.4347592475099144    8    8    1    1
 0.4338806775373716    8    8    2    2
 -0.01753356129789714    8    8    3    1
 0.4341215026690352    8    8    3    3
 0.4001341578012798    8    8    4    4
 0.4001341578012798    8    8    5    5
 0.4032556949745023    8    8    6    6
 0.4032556949745024    8    8    7    7
 -0.02480641645445902    8    8    8    2
 0.4515053535669346    8    8    8    8
 -0.0415058778329748    9    1    1    1
 -0.04002055298698663    9    1    2    2
 0.01787387134509793    9    1    3    1
 -0.02714532392160333    9    1    3    3
 -0.03636819795802962    9    1    4    4
 -0.03636819795802962    9    1    5    5
 -0.03776464011624894    9    1    6    6
 -0.03776464011624896    9    1    7    7
 0.02522857485587898    9    1    8    2
 -0.04146906887185883    9    1    8    8
 0.03366839069890364    9    1    9    1
 -0.04424995054077195    9    2    2    1
 0.01901835018704132    9    2    3    2
 -0.0409903706753337    9    2    6    5
 -0.0409903706753337    9    2    7    4
 0.03093337912782264    9    2    8    1
 -0.03793281961411148    9    2    8    3
 0.02951316175955444    9    2    9    2
 0.06343330988061537    9    3    1    1
 0.06811443007570833    9    3    2    2
 0.0118936141183583    9    3    3    1
 0.05185712558390598    9    3    3    3
 0.05279548655661741    9    3    4    4
 0.0527954865566174    9    3    5    5
 0.05633375379400705    9    3    6    6
 0.05633375379400708    9    3    7    7
 0.002793729112781033    9    3    8    2
 0.06980253741842125    9    3    8    8
 -0.03334676411863596    9    3    9    1
 0.05989842904739906    9    3    9    3
 -0.006343308870828972    9    4    4    1
 0.002752854623681221    9    4    4    3
 -0.006786815626612829    9    4    7    2
 0.005956521649857881    9    4    8    7
 0.01324499955172472    9    4    9    4
 -0.006343308870828974    9    5    5    1
 0.002752854623681221    9    5    5    3
 -0.006786815626612827    9    5    6    2
 0.00595652164985788    9    5    8    6
 0.01324499955172471    9    5    9    5
 -0.009929478003175276    9    6    5    2
 -0.01027089445349984    9    6    6    1
 0.004868311415540478    9    6    6    3
 0.007439070917731819    9    6    8    5
 0.01095953073817867    9    6    9    6
 -0.00992947800317528    9    7    4    2
 -0.01027089445349985    9    7    7    1
 0.004868311415540482    9    7    7    3
 0.007439070917731822    9    7    8    4
 0.01095953073817868    9    7    9    7
 0.1147240415788351    9    8    2    1
 0.00668770398450754    9    8    3    2
 0.09983283227191637    9    8    6    5
 0.09983283227191639    9    8    7    4
 -0.020124731126418    9    8    8    1
 0.1101912926879441    9    8    8    3
 -0.03666959936858585    9    8    9    2
 0.08053707753574678    9    8    9    8
 0.4174091956199325    9    9    1    1
 0.4066409225310582    9    9    2    2
 -0.06492815730126858    9    9    3    1
 0.4173439696590429    9    9    3    3
 0.3898988210506633    9    9    4    4
 0.3898988210506633    9    9    5    5
 0.3893557890400934    9    9    6    6
 0.3893557890400934    9    9    7    7
 -0.06858535941306879    9    9    8    2
 0.4271841077634245    9    9    8    8
 -0.03916206308716003    9    9    9    1
 0.03731104952682548    9    9    9    3
 0.4698538807247668    9    9    9    9
 -0.02210685913890969   10    1    4    1
 -0.002850933075956629   10    1    4    3
 -0.02340648257237485   10    1    7    2
 0.001714032763609244   10    1    8    7
 0.01151644304461616   10    1    9    4
 0.02110993036073013   10    1   10    1
 -0.02530516709278955   10    2    4    2
 -0.02532560176788799   10    2    7    1
 -0.002620966373773527   10    2    7    3
 0.002308911476658434   10    2    8    4
 0.01007768430461944   10    2    9    7
 0.02141745178557479   10    2   10    2
 -0.005830642329431945   10    3    4    1
 -0.002981651516209401   10    3    4    3
 -0.005910640333426793   10    3    7    2
 -0.003717673640484565   10    3    8    7
 -0.007099463635244171   10    3    9    4
 0.0009285960197266995   10    3   10    1
 0.008776990734104814   10    3   10    3
 -0.09163042780164687   10    4    1    1
 -0.09469209838088957   10    4    2    2
 -0.005436076173502309   10    4    3    1
 -0.07410906133551191   10    4    3    3
 -0.08636777045085059   10    4    4    4
 -0.07756521747460836   10    4    5    5
 -0.08046328681214293   10    4    6    6
 -0.09006584348499599   10    4    7    7
 0.002878161260713943   10    4    8    2
 -0.08504747797069918   10    4    8    8
 0.02956745204638922   10    4    9    1
 -0.0446097462738211   10    4    9    3
 -0.07144148661428118   10    4    9    9
 0.06933278364392285   10    4   10    4
 -0.004401276488121088   10    5    5    4
 -0.004801278336426486   10    5    7    6
 0.007670852314906047   10    5   10    5
 -0.005116547979741371   10    6    6    4
 -0.005116547979741375   10    6    7    5
 0.007589434847684361   10    6   10    6
 -0.09556296946236555   10    7    2    1
 -0.01316286325351233   10    7    3    2
 -0.08122159709704468   10    7    6    5
 -0.09145469305652747   10    7    7    4
 0.008416543133582362   10    7    8    1
 -0.07941057323147704   10    7    8    3
 0.02768942897788554   10    7    9    2
 -0.05883121130846016   10    7    9    8
 0.07237315298712788   10    7   10    7
 0.002821933236807382   10    8    4    2
 0.003129772229537508   10    8    7    1
 -0.005096544287172813   10    8    7    3
 -0.006109449819738085   10    8    8    4
 -0.007289860031505451   10    8    9    7
 -0.001250854124122626   10    8   10    2
 0.007927750197115021   10    8   10    8
 0.02985312181375926   10    9    4    1
 -0.01130438484153835   10    9    4    3
 0.02854447765205505   10    9    7    2
 -0.01404244170602819   10    9    8    7
 -0.002310326609262679   10    9    9    4
 -0.005790881767149803   10    9   10    1
 -0.001749754540184463   10    9   10    3
 0.02669726529536925   10    9   10    9
 0.3813891576213306   10   10    1    1
 0.3816917801686094   10   10    2    2
 -0.009781890070419259   10   10    3    1
 0.3595964786456309   10   10    3    3
 0.3814581007271885   10   10    4    4
 0.3567545169779258   10   10    5    5
 0.3594596946084289   10   10    6    6
 0.384537533129805   10   10    7    7
 -0.0186321657318252   10   10    8    2
 0.3700215862587977   10   10    8    8
 -0.0311240266990908   10   10    9    1
 0.04583356530876715   10   10    9    3
 0.3708517134178997   10   10    9    9
 -0.07611455290462583   10   10   10    4
 0.3652463537654929   10   10   10   10
 -0.02210685913890969   11    1    5    1
 -0.002850933075956626   11    1    5    3
 -0.02340648257237484   11    1    6    2
 0.001714032763609246   11    1    8    6
 0.01151644304461617   11    1    9    5
 0.02110993036073013   11    1   11    1
 -0.02530516709278954   11    2    5    2
 -0.02532560176788799   11    2    6    1
 -0.002620966373773522   11    2    6    3
 0.002308911476658436   11    2    8    5
 0.01007768430461944   11    2    9    6
 0.0214174517855748   11    2   11    2
 -0.005830642329431936   11    3    5    1
 -0.002981651516209402   11    3    5    3
 -0.005910640333426784   11    3    6    2
 -0.003717673640484565   11    3    8    6
 -0.007099463635244171   11    3    9    5
 0.000928596019726698   11    3   11    1
 0.008776990734104814   11    3   11    3
 -0.004401276488121088   11    4    5    4
 -0.004801278336426486   11    4    7    6
 0.007670852314906048   11    4   10    5
 0.007670852314906047   11    4   11    4
 -0.09163042780164687   11    5    1    1
 -0.09469209838088957   11    5    2    2
 -0.005436076173502301   11    5    3    1
 -0.07410906133551191   11    5    3    3
 -0.07756521747460836   11    5    4    4
 -0.08636777045085059   11    5    5    5
 -0.09006584348499594   11    5    6    6
 -0.08046328681214295   11    5    7    7
 0.002878161260713951   11    5    8    2
 -0.0850474779706992   11    5    8    8
 0.02956745204638922   11    5    9    1
 -0.0446097462738211   11    5    9    3
 -0.07144148661428117   11    5    9    9
 0.05399107901411075   11    5   10    4
 -0.07018627033054589   11    5   10   10
 0.06933278364392288   11    5   11    5
 -0.09556296946236549   11    6    2    1
 -0.01316286325351232   11    6    3    2
 -0.0914546930565274   11    6    6    5
 -0.08122159709704463   11    6    7    4
 0.008416543133582366   11    6    8    1
 -0.07941057323147699   11    6    8    3
 0.02768942897788554   11    6    9    2
 -0.05883121130846015   11    6    9    8
 0.05719428329175915   11    6   10    7
 0.07237315298712789   11    6   11    6
 -0.005116547979741375   11    7    6    4
 -0.005116547979741377   11    7    7    5
 0.007589434847684362   11    7   10    6
 0.007589434847684363   11    7   11    7
 0.00282193323680739   11    8    5    2
 0.003129772229537515   11    8    6    1
 -0.005096544287172811   11    8    6    3
 -0.006109449819738087   11    8    8    5
 -0.00728986003150545   11    8    9    6
 -0.00125085412412263   11    8   11    2
 0.007927750197115025   11    8   11    8
 0.02985312181375927   11    9    5    1
 -0.01130438484153835   11    9    5    3
 0.02854447765205505   11    9    6    2
 -0.01404244170602819   11    9    8    6
 -0.00231032660926268   11    9    9    5
 -0.005790881767149806   11    9   11    1
 -0.001749754540184458   11    9   11    3
 0.02669726529536927   11    9   11    9
 0.01235179187463135   11   10    5    4
 0.01253891926068797   11   10    7    6
 -0.002964141287039971   11   10   10    5
 -0.002964141287039971   11   10   11    4
 0.01259498743745604   11   10   11   10
 0.3813891576213306   11   11    1    1
 0.3816917801686094   11   11    2    2
 -0.009781890070419267   11   11    3    1
 0.3595964786456308   11   11    3    3
 0.3567545169779258   11   11    4    4
 0.3814581007271884   11   11    5    5
 0.3845375331298048   11   11    6    6
 0.359459694608429   11   11    7    7
 -0.01863216573182519   11   11    8    2
 0.3700215862587977   11   11    8    8
 -0.03112402669909078   11   11    9    1
 0.04583356530876714   11   11    9    3
 0.3708517134178997   11   11    9    9
 -0.07018627033054586   11   11   10    4
 0.3400563788905806   11   11   10   10
 -0.07611455290462583   11   11   11    5
 0.3652463537654927   11   11   11   11
 0.04837488996598685   12    1    2    1
 0.02179475615516438   12    1    3    2
 0.04158687041990172   12    1    6    5
 0.04158687041990174   12    1    7    4
 0.01198606075952442   12    1    8    1
 0.03843292601503571   12    1    8    3
 -0.00277555599755698   12    1    9    2
 0.02581134065907297   12    1    9    8
 -0.03444560035736351   12    1   10    7
 -0.0344456003573635   12    1   11    6
 0.02987242491063089   12    1   12    1
 0.05790921140344976   12    2    1    1
 0.06210429423149483   12    2    2    2
 0.01793858881110945   12    2    3    1
 0.04978837711128881   12    2    3    3
 0.05090464236712128   12    2    4    4
 0.05090464236712127   12    2    5    5
 0.05303064991382667   12    2    6    6
 0.05303064991382669   12    2    7    7
 0.01443653526069492   12    2    8    2
 0.05139062699093834   12    2    8    8
 -0.004954483792720413   12    2    9    1
 0.02409168670159392   12    2    9    3
 0.03916692685965732   12    2    9    9
 -0.03719551151399467   12    2   10    4
 0.04660617145005629   12    2   10   10
 -0.03719551151399468   12    2   11    5
 0.0466061714500563   12    2   11   11
 0.03638581151412298   12    2   12    2
 0.06204597834571382   12    3    2    1
 0.01264147557587974   12    3    3    2
 0.05201490893316483   12    3    6    5
 0.05201490893316483   12    3    7    4
 -0.001246516673978243   12    3    8    1
 0.0567147930943462   12    3    8    3
 -0.00951449317618607   12    3    9    2
 0.0425502350701626   12    3    9    8
 -0.04082588280362248   12    3   10    7
 -0.04082588280362247   12    3   11    6
 0.03291866423383789   12    3   12    1
 0.04559005540257801   12    3   12    3
 0.007392422528035546   12    4    4    2
 0.007244820557748486   12    4    7    1
 0.003560176786242463   12    4    7    3
 0.002050531242115506   12    4    8    4
 -0.002119615164654271   12    4    9    7
 -0.01256434113524484   12    4   10    2
 -0.004599413189944721   12    4   10    8
 0.01237631109453146   12    4   12    4
 0.007392422528035546   12    5    5    2
 0.007244820557748483   12    5    6    1
 0.00356017678624246   12    5    6    3
 0.002050531242115507   12    5    8    5
 -0.002119615164654269   12    5    9    6
 -0.01256434113524484   12    5   11    2
 -0.00459941318994472   12    5   11    8
 0.01237631109453146   12    5   12    5
 0.006481283409704975   12    6    5    1
 0.0039158113499228   12    6    5    3
 0.007324398027837997   12    6    6    2
 0.002476063170919802   12    6    8    6
 -0.00277637729078169   12    6    9    5
 -0.01268930476201861   12    6   11    1
 -0.005840959137229482   12    6   11    3
 -0.001462587455065582   12    6   11    9
 0.01331925354899263   12    6   12    6
 0.006481283409704988   12    7    4    1
 0.003915811349922802   12    7    4    3
 0.007324398027838013   12    7    7    2
 0.002476063170919805   12    7    8    7
 -0.002776377290781691   12    7    9    4
 -0.01268930476201862   12    7   10    1
 -0.005840959137229484   12    7   10    3
 -0.00146258745506558   12    7   10    9
 0.01331925354899263   12    7   12    7
 0.06891303721132512   12    8    1    1
 0.07002539817171979   12    8    2    2
 0.0007259335880711495   12    8    3    1
 0.06556242638391949   12    8    3    3
 0.05845603370361827   12    8    4    4
 0.05845603370361826   12    8    5    5
 0.0598371326897433   12    8    6    6
 0.05983713268974333   12    8    7    7
 -0.00253863829252629   12    8    8    2
 0.07014927319035588   12    8    8    8
 -0.01038448499020052   12    8    9    1
 0.03046258039479467   12    8    9    3
 0.06660446397467262   12    8    9    9
 -0.03680804109101168   12    8   10    4
 0.05435002309236257   12    8   10   10
 -0.03680804109101168   12    8   11    5
 0.05435002309236259   12    8   11   11
 0.03494268812198523   12    8   12    2
 0.04421997116384686   12    8   12    8
 0.05197417865676596   12    9    2    1
 0.01674590837496643   12    9    3    2
 0.04360496519714365   12    9    6    5
 0.04360496519714369   12    9    7    4
 0.005539812406708744   12    9    8    1
 0.0554738161202589   12    9    8    3
 -0.007508264576892543   12    9    9    2
 0.03177963737348469   12    9    9    8
 -0.0229857625895508   12    9   10    7
 -0.02298576258955076   12    9   11    6
 0.01397867584453324   12    9   12    1
 0.01957805361991303   12    9   12    3
 0.01987916550598591   12    9   12    9
 -0.03113166335626348   12   10    4    2
 -0.03068718799329989   12   10    7    1
 -0.01095142366580741   12   10    7    3
 -0.006342183101460198   12   10    8    4
 0.000432683798674121   12   10    9    7
 0.01045079053068122   12   10   10    2
 0.001395969335043841   12   10   10    8
 -0.00309598257409012   12   10   12    4
 0.02421122958421317   12   10   12   10
 -0.03113166335626348   12   11    5    2
 -0.03068718799329989   12   11    6    1
 -0.01095142366580742   12   11    6    3
 -0.0063421831014602   12   11    8    5
 0.0004326837986741143   12   11    9    6
 0.01045079053068122   12   11   11    2
 0.001395969335043838   12   11   11    8
 -0.003095982574090117   12   11   12    5
 0.02421122958421317   12   11   12   11
 0.3562459543737672   12   12    1    1
 0.3658302301275353   12   12    2    2
 0.04238082282226248   12   12    3    1
 0.3524076148510938   12   12    3    3
 0.3380954334878529   12   12    4    4
 0.3380954334878528   12   12    5    5
 0.3431189179887071   12   12    6    6
 0.3431189179887072   12   12    7    7
 0.03653941788055346   12   12    8    2
 0.3605859109798425   12   12    8    8
 -0.01581073907595303   12   12    9    1
 0.05489760284371618   12   12    9    3
 0.3112383303196598   12   12    9    9
 -0.06488558743627176   12   12   10    4
 0.3204279985251958   12   12   10   10
 -0.06488558743627171   12   12   11    5
 0.3204279985251958   12   12   11   11
 0.04817095377262442   12   12   12    2
 0.04458563913707046   12   12   12    8
 0.3601956709771871   12   12   12   12
 0.02195754994117108   13    1    5    2
 0.02205085009482153   13    1    6    1
 0.0009436762177763139   13    1    6    3
 -0.003523027685462029   13    1    8    5
 -0.0104730607699104   13    1    9    6
 -0.02030518403133745   13    1   11    2
 0.001922550448084135   13    1   11    8
 0.0118837262901573   13    1   12    5
 -0.008100449031059585   13    1   12   11
 0.01952210705602871   13    1   13    1
 0.02133956874928756   13    2    5    1
 0.001321415898727171   13    2    5    3
 0.02234697759655392   13    2    6    2
 -0.002885645062487724   13    2    8    6
 -0.01067472077270831   13    2    9    5
 -0.02058725379682892   13    2   11    1
 -0.001832875724640621   13    2   11    3
 0.006922101733799153   13    2   11    9
 0.01307690187506167   13    2   12    6
 0.02044874567883535   13    2   13    2
 0.0006460872624412985   13    3    5    2
 0.000411677936320292   13    3    6    1
 0.004154243362260498   13    3    6    3
 0.00439092688317247   13    3    8    5
 0.005123068988433543   13    3    9    6
 -0.001822496015410646   13    3   11    2
 -0.007032378709586879   13    3   11    8
 0.006040794482600989   13    3   12    5
 -0.002274170221350273   13    3   12   11
 0.001121219785629299   13    3   13    1
 0.006764220194026364   13    3   13    3
 0.004201206404240951   13    4    6    4
 0.004201206404240955   13    4    7    5
 -0.007451027118899328   13    4   10    6
 -0.007451027118899329   13    4   11    7
 0.007386860100683622   13    4   13    4
 0.08283663853632901   13    5    2    1
 0.008636817071101083   13    5    3    2
 0.07833724133962233   13    5    6    5
 0.0699348285311404   13    5    7    4
 -0.01043301224907227   13    5    8    1
 0.06872853588156   13    5    8    3
 -0.02668609704176451   13    5    9    2
 0.05421409298561632   13    5    9    8
 -0.05338072064360493   13    5   10    7
 -0.06828277488140361   13    5   11    6
 0.03206347106588148   13    5   12    1
 0.03838419803818172   13    5   12    3
 0.02041361328186062   13    5   12    9
 0.06508107262726232   13    5   13    5
 0.09219735709517952   13    6    1    1
 0.09426961407035218   13    6    2    2
 0.0006950379847707481   13    6    3    1
 0.07595906032110297   13    6    3    3
 0.07805076144844447   13    6    4    4
 0.08621490575350085   13    6    5    5
 0.08945902870789375   13    6    6    6
 0.08061764317153351   13    6    7    7
 -0.007110864058496724   13    6    8    2
 0.08633909313204792   13    6    8    8
 -0.02929960436431064   13    6    9    1
 0.04219589912440656   13    6    9    3
 0.07780847583236615   13    6    9    9
 -0.05359249628428651   13    6   10    4
 0.07131538131229932   13    6   10   10
 -0.0688701963176373   13    6   11    5
 0.07714150954745544   13    6   11   11
 0.03698706708111925   13    6   12    2
 0.03766130924369375   13    6   12    8
 0.06195331852106731   13    6   12   12
 0.06914478044448794   13    6   13    6
 0.004082072152528158   13    7    5    4
 0.004420692768180112   13    7    7    6
 -0.00763885001667538   13    7   10    5
 -0.00763885001667538   13    7   11    4
 0.002913064117578056   13    7   11   10
 0.007714297135302276   13    7   13    7
 -0.005098476984541117   13    8    5    1
 0.004164603392849313   13    8    5    3
 -0.004915416497362452   13    8    6    2
 0.005812787208640533   13    8    8    6
 0.00773765993671702   13    8    9    5
 0.002606400696540581   13    8   11    1
 -0.007237434307680486   13    8   11    3
 -0.005253789112186387   13    8   11    9
 0.004663917943150221   13    8   12    6
 -0.001975968056379794   13    8   13    2
 0.008240130064265355   13    8   13    8
 -0.02288861639162893   13    9    5    2
 -0.02343420098728877   13    9    6    1
 0.007164763027871317   13    9    6    3
 0.01159605180795965   13    9    8    5
 0.00766720004543286   13    9    9    6
 0.008609086999070757   13    9   11    2
 -0.005483763815676583   13    9   11    8
 0.0003130497162517589   13    9   12    5
 0.006434084952434616   13    9   12   11
 -0.008210800310474874   13    9   13    1
 0.003204751993424922   13    9   13    3
 0.0169550774229934   13    9   13    9
 -0.01203984867919935   13   10    6    4
 -0.01203984867919935   13   10    7    5
 0.003500177606197888   13   10   10    6
 0.003500177606197893   13   10   11    7
 -0.002788398592749501   13   10   13    4
 0.01193498273748994   13   10   13   10
 -0.1932756409919544   13   11    2    1
 -0.03326756432317886   13   11    3    2
 -0.197636462726196   13   11    6    5
 -0.1735567653677973   13   11    7    4
 0.007926507103817138   13   11    8    1
 -0.1667111026971585   13   11    8    3
 0.0354509029598773   13   11    9    2
 -0.0876505884960834   13   11    9    8
 0.07134041564759279   13   11   10    7
 0.07834077085998846   13   11   11    6
 -0.03594417242836113   13   11   12    1
 -0.04545167633042722   13   11   12    3
 -0.04035989292088351   13   11   12    9
 -0.06719664249390629   13   11   13    5
 0.1801264079646209   13   11   13   11
 0.03309241062343659   13   12    5    1
 0.009642730168013949   13   12    5    3
 0.03463948440358449   13   12    6    2
 0.006383288090787311   13   12    8    6
 0.00126943766391055   13   12    9    5
 -0.008355186103599825   13   12   11    1
 -0.004596509126559394   13   12   11    3
 0.009478514516446943   13   12   11    9
 0.001789098406751196   13   12   12    6
 0.007287056675728326   13   12   13    2
 -0.0003083799469749532   13   12   13    8
 0.02733617201381141   13   12   13   12
 0.3760618616356158   13   13    1    1
 0.377121490216793   13   13    2    2
 -0.006439416692377694   13   13    3    1
 0.3530221120142707   13   13    3    3
 0.3523408271657127   13   13    4    4
 0.3772021731180145   13   13    5    5
 0.380672757169227   13   13    6    6
 0.3553246658715778   13   13    7    7
 -0.01589005024406367   13   13    8    2
 0.3646401991561655   13   13    8    8
 -0.0322090883060962   13   13    9    1
 0.0483336666828839   13   13    9    3
 0.3604001095668279   13   13    9    9
 -0.06893758747976711   13   13   10    4
 0.3356819551738875   13   13   10   10
 -0.07429906880478723   13   13   11    5
 0.3609178746147901   13   13   11   11
 0.04440040066541026   13   13   12    2
 0.0514758117957573   13   13   12    8
 0.3199743402973859   13   13   12   12
 0.07445619720557126   13   13   13    6
 0.3580786582634381   13   13   13   13
 0.02195754994117105   14    1    4    2
 0.0220508500948215   14    1    7    1
 0.0009436762177763135   14    1    7    3
 -0.003523027685462024   14    1    8    4
 -0.0104730607699104   14    1    9    7
 -0.02030518403133743   14    1   10    2
 0.001922550448084129   14    1   10    8
 0.0118837262901573   14    1   12    4
 -0.008100449031059583   14    1   12   10
 0.01952210705602867   14    1   14    1
 0.02133956874928752   14    2    4    1
 0.00132141589872717   14    2    4    3
 0.02234697759655389   14    2    7    2
 -0.00288564506248772   14    2    8    7
 -0.0106747207727083   14    2    9    4
 -0.0205872537968289   14    2   10    1
 -0.00183287572464062   14    2   10    3
 0.006922101733799147   14    2   10    9
 0.01307690187506166   14    2   12    7
 0.02044874567883531   14    2   14    2
 0.0006460872624412985   14    3    4    2
 0.0004116779363202928   14    3    7    1
 0.004154243362260493   14    3    7    3
 0.004390926883172461   14    3    8    4
 0.00512306898843354   14    3    9    7
 -0.001822496015410646   14    3   10    2
 -0.007032378709586874   14    3   10    8
 0.006040794482600984   14    3   12    4
 -0.002274170221350267   14    3   12   10
 0.001121219785629298   14    3   14    1
 0.006764220194026354   14    3   14    3
 0.08283663853632889   14    4    2    1
 0.008636817071101068   14    4    3    2
 0.06993482853114029   14    4    6    5
 0.07833724133962222   14    4    7    4
 -0.01043301224907225   14    4    8    1
 0.0687285358815599   14    4    8    3
 -0.02668609704176447   14    4    9    2
 0.05421409298561625   14    4    9    8
 -0.06828277488140351   14    4   10    7
 -0.05338072064360485   14    4   11    6
 0.03206347106588144   14    4   12    1
 0.03838419803818167   14    4   12    3
 0.02041361328186066   14    4   12    9
 0.05030735242589498   14    4   13    5
 -0.06161984530840722   14    4   13   11
 0.06508107262726215   14    4   14    4
 0.004201206404240944   14    5    6    4
 0.004201206404240947   14    5    7    5
 -0.007451027118899322   14    5   10    6
 -0.007451027118899323   14    5   11    7
 0.007386860100683617   14    5   13    4
 -0.002788398592749493   14    5   13   10
 0.007386860100683612   14    5   14    5
 0.004082072152528147   14    6    5    4
 0.004420692768180101   14    6    7    6
 -0.007638850016675373   14    6   10    5
 -0.007638850016675373   14    6   11    4
 0.002913064117578045   14    6   11   10