 &FCI NORB=  26,NELEC=10,MS2=0,
  ORBSYM=1,1,1,1,1,1,1,1,1,1,1,1,1,1,1,1,1,1,1,1,1,1,1,1,1,1
  ISYM=1,
 &END
 0.446585092293647    1    1    1    1
 0.246418407868875    2    1    2    1
 0.4465508380113502    2    2    1    1
 0.4500782283947101    2    2    2    2
 -0.01416151114238236    3    1    1    1
 0.001382633255326257    3    1    2    2
 0.07127210297094927    3    1    3    1
 0.04844097793448135    3    2    2    1
 0.0658320288034176    3    2    3    2
 0.4247576503453381    3    3    1    1
 0.4232771097387004    3    3    2    2
 -0.01411050234693003    3    3    3    1
 0.4306037986164721    3    3    3    3
 0.0674128485064763    4    1    4    1
 0.06368371622541959    4    2    4    2
 0.001092971440772731    4    3    4    1
 0.01687767549848893    4    3    4    3
 0.420391384345732    4    4    1    1
 0.4209520060542176    4    4    2    2
 -0.0106593817654545    4    4    3    1
 0.391662190372181    4    4    3    3
 0.4205201604565258    4    4    4    4
 0.0674128485064763    5    1    5    1
 0.06368371622541959    5    2    5    2
 0.001092971440772731    5    3    5    1
 0.01687767549848893    5    3    5    3
 0.01621435529021928    5    4    5    4
 0.420391384345732    5    5    1    1
 0.4209520060542177    5    5    2    2
 -0.01065938176545451    5    5    3    1
 0.391662190372181    5    5    3    3
 0.3880914498760872    5    5    4    4
 0.4205201604565258    5    5    5    5
 0.06373168337715841    6    1    5    2
 0.06383960448297495    6    1    6    1
 0.06867163744241903    6    2    5    1
 0.003783316804896556    6    2    5    3
 0.07045027084111008    6    2    6    2
 0.00673826270861765    6    3    5    2
 0.005802049788409881    6    3    6    1
 0.0156813549997137    6    3    6    3
 0.01634443668294706    6    4    6    4
 0.2266732271198098    6    5    2    1
 0.04181720319073838    6    5    3    2
 0.2323447968986644    6    5    6    5
 0.4247419949910987    6    6    1    1
 0.426433020706025    6    6    2    2
 -0.006408353364453515    6    6    3    1
 0.3942939458188044    6    6    3    3
 0.3918317258654197    6    6    4    4
 0.4251172550490234    6    6    5    5
 0.430371620234642    6    6    6    6
 0.06373168337715839    7    1    4    2
 0.06383960448297489    7    1    7    1
 0.06867163744241901    7    2    4    1
 0.003783316804896554    7    2    4    3
 0.07045027084111002    7    2    7    2
 0.006738262708617649    7    3    4    2
 0.005802049788409878    7    3    7    1
 0.01568135499971369    7    3    7    3
 0.2266732271198098    7    4    2    1
 0.04181720319073837    7    4    3    2
 0.1996559235327703    7    4    6    5
 0.2323447968986643    7    4    7    4
 0.01634443668294706    7    5    6    4
 0.01634443668294705    7    5    7    5
 0.01664276459180183    7    6    5    4
 0.0171531118922834    7    6    7    6
 0.4247419949910985    7    7    1    1
 0.4264330207060248    7    7    2    2
 -0.006408353364453514    7    7    3    1
 0.3942939458188044    7    7    3    3
 0.4251172550490231    7    7    4    4
 0.3918317258654195    7    7    5    5
 0.3960653964500751    7    7    6    6
 0.4303716202346417    7    7    7    7
 -0.01218129346360101    8    1    2    1
 0.05807397142841884    8    1    3    2
 -0.01368159609531566    8    1    6    5
 -0.01368159609531564    8    1    7    4
 0.06564383129329389    8    1    8    1
 -0.02583213953489912    8    2    1    1
 -0.01127320705392816    8    2    2    2
 0.07003108396183885    8    2    3    1
 -0.01771604761505677    8    2    3    3
 -0.02282468833066498    8    2    4    4
 -0.02282468833066498    8    2    5    5
 -0.01949235979777189    8    2    6    6
 -0.01949235979777188    8    2    7    7
 0.07205030128150164    8    2    8    2
 0.2180218104544414    8    3    2    1
 0.04243589569609332    8    3    3    2
 0.191799445040436    8    3    6    5
 0.1917994450404359    8    3    7    4
 -0.01197320299333343    8    3    8    1
 0.215147302813015    8    3    8    3
 -0.005764592083089669    8    4    4    2
 -0.006773677675087664    8    4    7    1
 0.01534527442268168    8    4    7    3
 0.01758553409453819    8    4    8    4
 -0.005764592083089669    8    5    5    2
 -0.006773677675087668    8    5    6    1
 0.01534527442268169    8    5    6    3
 0.01758553409453819    8    5    8    5
 -0.008031213060714122    8    6    5    1
 0.01660458868466396    8    6    5    3
 -0.005776109831216826    8    6    6    2
 0.01840300993284885    8    6    8    6
 -0.008031213060714117    8    7    4    1
 0.01660458868466396    8    7    4    3
 -0.005776109831216816    8    7    7    2
 0.01840300993284884    8    7    8    7
 0.440238153854878    8    8    1    1
 0.4387146085923713    8    8    2    2
 -0.01938391592895032    8    8    3    1
 0.4400077927044218    8    8    3    3
 0.4048353850281779    8    8    4    4
 0.4048353850281779    8    8    5    5
 0.408368642351103    8    8    6    6
 0.4083686423511028    8    8    7    7
 -0.0270960289895811    8    8    8    2
 0.4582894926166587    8    8    8    8
 -0.04539368737368336    9    1    1    1
 -0.04405605037419016    9    1    2    2
 0.01623305598703426    9    1    3    1
 -0.02999859649369679    9    1    3    3
 -0.03972580374579151    9    1    4    4
 -0.03972580374579152    9    1    5    5
 -0.04161385048928007    9    1    6    6
 -0.04161385048927999    9    1    7    7
 0.02472393339977072    9    1    8    2
 -0.04598161367643051    9    1    8    8
 0.0357287794176836    9    1    9    1
 -0.04810128041821306    9    2    2    1
 0.01689873492488613    9    2    3    2
 -0.04458492983212212    9    2    6    5
 -0.04458492983212209    9    2    7    4
 0.03134556757579057    9    2    8    1
 -0.0411295172736424    9    2    8    3
 0.03082763290496362    9    2    9    2
 0.0577854520281362    9    3    1    1
 0.06324290154399423    9    3    2    2
 0.01263567717057827    9    3    3    1
 0.04719777405646096    9    3    3    3
 0.04796288293614112    9    3    4    4
 0.04796288293614112    9    3    5    5
 0.0520769216422865    9    3    6    6
 0.0520769216422864    9    3    7    7
 0.002784561690648917    9    3    8    2
 0.06581441742099577    9    3    8    8
 -0.03483335690842766    9    3    9    1
 0.05656893849024008    9    3    9    3
 -0.006674835543720168    9    4    4    1
 0.002155829281777868    9    4    4    3
 -0.007339776396457965    9    4    7    2
 0.00597363721720229    9    4    8    7
 0.01440745672117588    9    4    9    4
 -0.00667483554372017    9    5    5    1
 0.002155829281777867    9    5    5    3
 -0.007339776396457977    9    5    6    2
 0.005973637217202296    9    5    8    6
 0.01440745672117588    9    5    9    5
 -0.01102311006142727    9    6    5    2
 -0.01142691424362314    9    6    6    1
 0.004621685702060164    9    6    6    3
 0.007735326294397524    9    6    8    5
 0.01169541624087363    9    6    9    6
 -0.01102311006142724    9    7    4    2
 -0.0114269142436231    9    7    7    1
 0.004621685702060153    9    7    7    3
 0.007735326294397513    9    7    8    4
 0.01169541624087361    9    7    9    7
 0.1138290461173213    9    8    2    1
 0.007863725773222231    9    8    3    2
 0.09940808534521234    9    8    6    5
 0.09940808534521225    9    8    7    4
 -0.02274029102252497    9    8    8    1
 0.1097493975254043    9    8    8    3
 -0.03944413444868415    9    8    9    2
 0.08003521215189208    9    8    9    8
 0.4248459604924354    9    9    1    1
 0.4113938891473438    9    9    2    2
 -0.06882653211661539    9    9    3    1
 0.4232364402858591    9    9    3    3
 0.3965172902108462    9    9    4    4
 0.3965172902108461    9    9    5    5
 0.3955414069241048    9    9    6    6
 0.3955414069241047    9    9    7    7
 -0.07240163689426463    9    9    8    2
 0.4341581070268889    9    9    8    8
 -0.04229794471122934    9    9    9    1
 0.03226929998583149    9    9    9    3
 0.4796042911341302    9    9    9    9
 -0.02188321596577283   10    1    4    1
 -0.003319426601660529   10    1    4    3
 -0.0234674488762286   10    1    7    2
 0.001902357936565919   10    1    8    7
 0.01272387153042719   10    1    9    4
 0.02121424705660962   10    1   10    1
 -0.02564496681785153   10    2    4    2
 -0.02566745616701333   10    2    7    1
 -0.003080774151991976   10    2    7    3
 0.002597682435145664   10    2    8    4
 0.01111303919431119   10    2    9    7
 0.0216104984616621   10    2   10    2
 -0.006749769006861043   10    3    4    1
 -0.002886170523359672   10    3    4    3
 -0.006817945236725754   10    3    7    2
 -0.003613570512886767   10    3    8    7
 -0.006960249713501871   10    3    9    4
 0.001062379669940876   10    3   10    1
 0.00908019005706996   10    3   10    3
 -0.09137310101754888   10    4    1    1
 -0.09503028162851079   10    4    2    2
 -0.006197052922553792   10    4    3    1
 -0.07442119059760935   10    4    3    3
 -0.08604762807688621   10    4    4    4
 -0.07734325109481922   10    4    5    5
 -0.08079095440291147   10    4    6    6
 -0.09047869297552778   10    4    7    7
 0.003074922880261319   10    4    8    2
 -0.08585954851113685   10    4    8    8
 0.03245615134750471   10    4    9    1
 -0.04244067792370258   10    4    9    3
 -0.07107194949112368   10    4    9    9
 0.06947004536073768   10    4   10    4
 -0.004352188491033471   10    5    5    4
 -0.004843869286308199   10    5    7    6
 0.007712168065109591   10    5   10    5
 -0.00522122085180982   10    6    6    4
 -0.005221220851809812   10    6    7    5
 0.007606205357616138   10    6   10    6
 -0.09623866801367009   10    7    2    1
 -0.01528130972839436   10    7    3    2
 -0.0819136935108204   10    7    6    5
 -0.09235613521443996   10    7    7    4
 0.00966962203839364   10    7    8    1
 -0.08008188537070836   10    7    8    3
 0.03056053380343341   10    7    9    2
 -0.05860550499726965   10    7    9    8
 0.07309553295126846   10    7   10    7
 0.003066716664813665   10    8    4    2
 0.003439728135016983   10    8    7    1
 -0.005187848898794752   10    8    7    3
 -0.006354030619976849   10    8    8    4
 -0.007261172156719786   10    8    9    7
 -0.001404824415042577   10    8   10    2
 0.008000785426327534   10    8   10    8
 0.03310055304370123   10    9    4    1
 -0.01109745943182187   10    9    4    3
 0.03157228415600095   10    9    7    2
 -0.01443826355914741   10    9    8    7
 -0.001874115743223868   10    9    9    4
 -0.006221414377499841   10    9   10    1
 -0.002758170022679583   10    9   10    3
 0.0297402929569397   10    9   10    9
 0.3856719410327637   10   10    1    1
 0.3857075223861777   10   10    2    2
 -0.0106634874554878   10   10    3    1
 0.3646091837053497   10   10    3    3
 0.3853557280092314   10   10    4    4
 0.3605422950809529   10   10    5    5
 0.3635850657835223   10   10    6    6
 0.3888033017504494   10   10    7    7
 -0.02025723735886593   10   10    8    2
 0.3751906508412489   10   10    8    8
 -0.03422397101554574   10   10    9    1
 0.04168454493989629   10   10    9    3
 0.3775206919363742   10   10    9    9
 -0.07623415566610504   10   10   10    4
 0.3698014193396796   10   10   10   10
 -0.02188321596577283   11    1    5    1
 -0.003319426601660529   11    1    5    3
 -0.02346744887622862   11    1    6    2
 0.00190235793656592   11    1    8    6
 0.01272387153042719   11    1    9    5
 0.02121424705660961   11    1   11    1
 -0.02564496681785153   11    2    5    2
 -0.02566745616701335   11    2    6    1
 -0.003080774151991979   11    2    6    3
 0.002597682435145664   11    2    8    5
 0.0111130391943112   11    2    9    6
 0.0216104984616621   11    2   11    2
 -0.006749769006861044   11    3    5    1
 -0.002886170523359672   11    3    5    3
 -0.006817945236725756   11    3    6    2
 -0.003613570512886776   11    3    8    6
 -0.00696024971350187   11    3    9    5
 0.001062379669940876   11    3   11    1
 0.009080190057069958   11    3   11    3
 -0.004352188491033471   11    4    5    4
 -0.004843869286308199   11    4    7    6
 0.007712168065109591   11    4   10    5
 0.007712168065109591   11    4   11    4
 -0.09137310101754885   11    5    1    1
 -0.09503028162851078   11    5    2    2
 -0.006197052922553794   11    5    3    1
 -0.07442119059760938   11    5    3    3
 -0.07734325109481921   11    5    4    4
 -0.08604762807688619   11    5    5    5
 -0.09047869297552794   11    5    6    6
 -0.08079095440291134   11    5    7    7
 0.003074922880261318   11    5    8    2
 -0.08585954851113684   11    5    8    8
 0.03245615134750471   11    5    9    1
 -0.04244067792370259   11    5    9    3
 -0.07107194949112368   11    5    9    9
 0.05404570923051854   11    5   10    4
 -0.07035695928225325   11    5   10   10
 0.06947004536073773   11    5   11    5
 -0.0962386680136703   11    6    2    1
 -0.0152813097283944   11    6    3    2
 -0.09235613521444024   11    6    6    5
 -0.08191369351082052   11    6    7    4
 0.009669622038393649   11    6    8    1
 -0.08008188537070851   11    6    8    3
 0.03056053380343345   11    6    9    2
 -0.05860550499726977   11    6    9    8
 0.05788312223603627   11    6   10    7
 0.07309553295126865   11    6   11    6
 -0.005221220851809808   11    7    6    4
 -0.0052212208518098   11    7    7    5
 0.007606205357616134   11    7   10    6
 0.00760620535761613   11    7   11    7
 0.003066716664813664   11    8    5    2
 0.003439728135016984   11    8    6    1
 -0.00518784889879476   11    8    6    3
 -0.006354030619976849   11    8    8    5
 -0.007261172156719791   11    8    9    6
 -0.001404824415042575   11    8   11    2
 0.008000785426327532   11    8   11    8
 0.03310055304370123   11    9    5    1
 -0.01109745943182187   11    9    5    3
 0.03157228415600096   11    9    6    2
 -0.01443826355914741   11    9    8    6
 -0.001874115743223866   11    9    9    5
 -0.006221414377499842   11    9   11    1
 -0.002758170022679586   11    9   11    3
 0.0297402929569397   11    9   11    9
 0.01240671646413922   11   10    5    4
 0.01260911798346361   11   10    7    6
 -0.002938598191925928   11   10   10    5
 -0.002938598191925928   11   10   11    4
 0.01271314184367148   11   10   11   10
 0.3856719410327636   11   11    1    1
 0.3857075223861777   11   11    2    2
 -0.0106634874554878   11   11    3    1
 0.3646091837053497   11   11    3    3
 0.360542295080953   11   11    4    4
 0.3853557280092314   11   11    5    5
 0.3888033017504496   11   11    6    6
 0.3635850657835222   11   11    7    7
 -0.02025723735886594   11   11    8    2
 0.3751906508412488   11   11    8    8
 -0.03422397101554573   11   11    9    1
 0.04168454493989635   11   11    9    3
 0.3775206919363743   11   11    9    9
 -0.07035695928225323   11   11   10    4
 0.3443751356523364   11   11   10   10
 -0.07623415566610506   11   11   11    5
 0.3698014193396794   11   11   11   11
 0.04664693467434787   12    1    2    1
 0.02261601656405691   12    1    3    2
 0.0401672482625282   12    1    6    5
 0.04016724826252815   12    1    7    4
 0.01169447475763668   12    1    8    1
 0.03668616603593895   12    1    8    3
 -0.004211228524475136   12    1    9    2
 0.02328651227070522   12    1    9    8
 -0.03358520089908672   12    1   10    7
 -0.03358520089908677   12    1   11    6
 0.02893485256872334   12    1   12    1
 0.05730788500823701   12    2    1    1
 0.06224482717641755   12    2    2    2
 0.01838886642304444   12    2    3    1
 0.0499027610765472   12    2    3    3
 0.0505787803132888   12    2    4    4
 0.05057878031328881   12    2    5    5
 0.05306304514526988   12    2    6    6
 0.05306304514526981   12    2    7    7
 0.01442972570708382   12    2    8    2
 0.05094116290236906   12    2    8    8
 -0.0068575242956804   12    2    9    1
 0.02154929967533681   12    2    9    3
 0.03810779701991911   12    2    9    9
 -0.03682626965951705   12    2   10    4
 0.04671342967993151   12    2   10   10
 -0.03682626965951707   12    2   11    5
 0.04671342967993154   12    2   11   11
 0.03643448632483236   12    2   12    2
 0.06325105467614625   12    3    2    1
 0.01376736646331178   12    3    3    2
 0.0530851492599672   12    3    6    5
 0.05308514925996717   12    3    7    4
 -0.002635036875968123   12    3    8    1
 0.05795499000800425   12    3    8    3
 -0.01255505427519754   12    3    9    2
 0.04214000961147468   12    3    9    8
 -0.04200531247018878   12    3   10    7
 -0.04200531247018884   12    3   11    6
 0.03258437072356781   12    3   12    1
 0.04696533722525666   12    3   12    3
 0.007488070172058683   12    4    4    2
 0.007314241372343584   12    4    7    1
 0.003683541755435072   12    4    7    3
 0.00195915784070162   12    4    8    4
 -0.002737718281563174   12    4    9    7
 -0.0123571438291623   12    4   10    2
 -0.004556001162698322   12    4   10    8
 0.01203068703997202   12    4   12    4
 0.007488070172058683   12    5    5    2
 0.007314241372343595   12    5    6    1
 0.003683541755435078   12    5    6    3
 0.00195915784070162   12    5    8    5
 -0.002737718281563174   12    5    9    6
 -0.01235714382916229   12    5   11    2
 -0.004556001162698322   12    5   11    8
 0.01203068703997202   12    5   12    5
 0.006526377740129158   12    6    5    1
 0.004046891827957999   12    6    5    3
 0.007512300433694422   12    6    6    2
 0.002401130506680614   12    6    8    6
 -0.003454326942559727   12    6    9    5
 -0.01245888101231264   12    6   11    1
 -0.006036198181877444   12    6   11    3
 -0.001237485521318731   12    6   11    9
 0.01310360413923086   12    6   12    6
 0.006526377740129126   12    7    4    1
 0.004046891827957988   12    7    4    3
 0.007512300433694376   12    7    7    2
 0.002401130506680603   12    7    8    7
 -0.003454326942559728   12    7    9    4
 -0.01245888101231263   12    7   10    1
 -0.006036198181877439   12    7   10    3
 -0.001237485521318738   12    7   10    9
 0.01310360413923085   12    7   12    7
 0.0704689201846737   12    8    1    1
 0.07149999750811378   12    8    2    2
 -0.000432465697250454   12    8    3    1
 0.06758239667891723   12    8    3    3
 0.05970004801414843   12    8    4    4
 0.05970004801414844   12    8    5    5
 0.06125951581700308   12    8    6    6
 0.06125951581700299   12    8    7    7
 -0.004063836845405091   12    8    8    2
 0.0723552556087949   12    8    8    8
 -0.0133149155138027   12    8    9    1
 0.02826827556152072   12    8    9    3
 0.06885763932424931   12    8    9    9
 -0.03720134138528201   12    8   10    4
 0.05593591655011242   12    8   10   10
 -0.03720134138528202   12    8   11    5
 0.05593591655011245   12    8   11   11
 0.03491174200125426   12    8   12    2
 0.0452113446013918   12    8   12    8
 0.04231564631099485   12    9    2    1
 0.01272525350708849   12    9    3    2
 0.03483926609026424   12    9    6    5
 0.03483926609026425   12    9    7    4
 0.001894105627253979   12    9    8    1
 0.04645456925799305   12    9    8    3
 -0.008371729452362467   12    9    9    2
 0.02829111126154679   12    9    9    8
 -0.0203586671081238   12    9   10    7
 -0.0203586671081238   12    9   11    6
 0.01152588496093386   12    9   12    1
 0.01831367308492591   12    9   12    3
 0.01516174697918158   12    9   12    9
 -0.030296816238717   12   10    4    2
 -0.02977795852578042   12   10    7    1
 -0.01135848877568991   12   10    7    3
 -0.006138226853276948   12   10    8    4
 0.0007625676664511933   12   10    9    7
 0.01057031403483294   12   10   10    2
 0.001465342823629182   12   10   10    8
 -0.003308547172535756   12   10   12    4
 0.02340285772640414   12   10   12   10
 -0.03029681623871701   12   11    5    2
 -0.02977795852578042   12   11    6    1
 -0.01135848877568991   12   11    6    3
 -0.006138226853276949   12   11    8    5
 0.0007625676664512003   12   11    9    6
 0.01057031403483294   12   11   11    2
 0.001465342823629183   12   11   11    8
 -0.003308547172535755   12   11   12    5
 0.02340285772640414   12   11   12   11
 0.3580447218094037   12   12    1    1
 0.3690485122543986   12   12    2    2
 0.04201857672266272   12   12    3    1
 0.3561818731573343   12   12    3    3
 0.3397869394250779   12   12    4    4
 0.3397869394250779   12   12    5    5
 0.3456802884448693   12   12    6    6
 0.3456802884448691   12   12    7    7
 0.0355423461644173   12   12    8    2
 0.3639662781179604   12   12    8    8
 -0.01939558857119916   12   12    9    1
 0.05209586969719932   12   12    9    3
 0.3130784795908377   12   12    9    9
 -0.06536556151624616   12   12   10    4
 0.3227895344787932   12   12   10   10
 -0.06536556151624619   12   12   11    5
 0.3227895344787932   12   12   11   11
 0.04787280936097209   12   12   12    2
 0.04476431547229013   12   12   12    8
 0.3626942157491094   12   12   12   12
 0.0217088591590898   13    1    5    2
 0.02183876379521145   13    1    6    1
 0.0009271925717861852   13    1    6    3
 -0.004114943675152197   13    1    8    5
 -0.0115137361619278   13    1    9    6
 -0.02023655992664092   13    1   11    2
 0.002203545841693078   13    1   11    8
 0.01151768257498157   13    1   12    5
 -0.007786440790933028   13    1   12   11
 0.01934351246463653   13    1   13    1
 0.0210643498950591   13    2    5    1
 0.001318402908582121   13    2    5    3
 0.02221131207595946   13    2    6    2
 -0.003416445011091794   13    2    8    6
 -0.01169822575140105   13    2    9    5
 -0.02051602764547495   13    2   11    1
 -0.0021333545426151   13    2   11    3
 0.007659285104630897   13    2   11    9
 0.0128831523168115   13    2   12    6
 0.02038648224888652   13    2   13    2
 0.0004004923701579732   13    3    5    2
 0.0001191263053526248   13    3    6    1
 0.004193000541781741   13    3    6    3
 0.004450622772505541   13    3    8    5
 0.004672827232086888   13    3    9    6
 -0.001998684032745009   13    3   11    2
 -0.006973608147171464   13    3   11    8
 0.006192248906038141   13    3   12    5
 -0.002226098765498459   13    3   12   11
 0.001187759902744101   13    3   13    1
 0.006730937950808071   13    3   13    3
 0.00414006520583062   13    4    6    4
 0.004140065205830613   13    4    7    5
 -0.007424364961703784   13    4   10    6
 -0.00742436496170378   13    4   11    7
 0.007350690530852544   13    4   13    4
 0.08137245513615586   13    5    2    1
 0.009451896128285486   13    5    3    2
 0.07702550544732727   13    5    6    5
 0.06874537503566591   13    5    7    4
 -0.01211562511887049   13    5    8    1
 0.06766252696808726   13    5    8    3
 -0.02920606720057504   13    5    9    2
 0.05319214957479797   13    5    9    8
 -0.05328027451078309   13    5   10    7
 -0.06812900443419075   13    5   11    6
 0.03077016446650247   13    5   12    1
 0.03905474643085159   13    5   12    3
 0.01803872131312858   13    5   12    9
 0.06442612658814123   13    5   13    5
 0.09248670111821695   13    6    1    1
 0.09468681969949025   13    6    2    2
 0.0001353739239981776   13    6    3    1
 0.07690798071570955   13    6    3    3
 0.07825493756296401   13    6    4    4
 0.08625864665771303   13    6    5    5
 0.09001018822062451   13    6    6    6
 0.08121100051539043   13    6    7    7
 -0.00843063059085055   13    6    8    2
 0.08774707309471202   13    6    8    8
 -0.03211941316754675   13    6    9    1
 0.03946830812227281   13    6    9    3
 0.0792830240110564   13    6    9    9
 -0.05352529642527401   13    6   10    4
 0.07199970593317725   13    6   10   10
 -0.06880811773358649   13    6   11    5
 0.07783036958724493   13    6   11   11
 0.03652794748184407   13    6   12    2
 0.0383538368990416   13    6   12    8
 0.06184709169727964   13    6   12   12
 0.069258981816875   13    6   13    6
 0.004001854547374479   13    7    5    4
 0.004399593852616949   13    7    7    6
 -0.007641410654156217   13    7   10    5
 -0.007641410654156217   13    7   11    4
 0.002915331827033828   13    7   11   10
 0.007733586615071491   13    7   13    7
 -0.006144481771193483   13    8    5    1
 0.004189430277291031   13    8    5    3
 -0.00593657119555343   13    8    6    2
 0.00613455583539124   13    8    8    6
 0.007710274062270189   13    8    9    5
 0.00299949368477596   13    8   11    1
 -0.0070590476264516   13    8   11    3
 -0.005942140469281146   13    8   11    9
 0.004660299853333474   13    8   12    6
 -0.002299995339135477   13    8   13    2
 0.008448089143381151   13    8   13    8
 -0.02501947219887888   13    9    5    2
 -0.02561513912537933   13    9    6    1
 0.006138963942902252   13    9    6    3
 0.01160160670397896   13    9    8    5
 0.00833241365271337   13    9    9    6
 0.009594986497323174   13    9   11    2
 -0.005793696205372152   13    9   11    8
 7.986627244183668e-05   13    9   12    5
 0.007585686292179576   13    9   12   11
 -0.009017967409371911   13    9   13    1
 0.003333060085845385   13    9   13    3
 0.01818736454743322   13    9   13    9
 -0.01198837403956724   13   10    6    4
 -0.01198837403956724   13   10    7    5
 0.003596393142182382   13   10   10    6
 0.00359639314218237   13   10   11    7
 -0.002758816187165536   13   10   13    4
 0.01185881242362908   13   10   13   10
 -0.1894406289925116   13   11    2    1
 -0.0366304528804718   13   11    3    2
 -0.1941005802134729   13   11    6    5
 -0.1701238321343383   13   11    7    4
 0.009944211411859624   13   11    8    1
 -0.1630853823523769   13   11    8    3
 0.03851960747615438   13   11    9    2
 -0.08722215610265818   13   11    9    8
 0.07188427382564672   13   11   10    7
 0.0790770601100117   13   11   11    6
 -0.03462628446079214   13   11   12    1
 -0.04635286106921416   13   11   12    3
 -0.0324797319576759   13   11   12    9
 -0.06608180818924515   13   11   13    5
 0.1766685208533685   13   11   13   11
 0.03229332728641306   13   12    5    1
 0.009917710265268335   13   12    5    3
 0.03410915212292212   13   12    6    2
 0.006266822631468915   13   12    8    6
 0.001253644872520303   13   12    9    5
 -0.008141276430013625   13   12   11    1
 -0.004939865776294234   13   12   11    3
 0.01095171283587783   13   12   11    9
 0.001813292400747294   13   12   12    6
 0.00681547772925497   13   12   13    2
 -0.0007195523233612514   13   12   13    8
 0.0268292932762017   13   12   13   12
 0.378789833792096   13   13    1    1
 0.3798787312046754   13   13    2    2
 -0.006611239213516598   13   13    3    1
 0.3564077092323382   13   13    3    3
 0.3548381025623492   13   13    4    4
 0.3797322236731558   13   13    5    5
 0.3837465281712998   13   13    6    6
 0.3582766391948053   13   13    7    7
 -0.01699039420071971   13   13    8    2
 0.368446362689629   13   13    8    8
 -0.03543871341716454   13   13    9    1
 0.04480114127838162   13   13    9    3
 0.3647236520944557   13   13    9    9
 -0.06883118423706372   13   13   10    4
 0.3387200140835539   13   13   10   10
 -0.07410306799951315   13   13   11    5
 0.3640436681174953   13   13   11   11
 0.04396416089965183   13   13   12    2
 0.05231395797664699   13   13   12    8
 0.3219953082968355   13   13   12   12
 0.07444195093082474   13   13   13    6
 0.3604078433544852   13   13   13   13
 0.02170885915908986   14    1    4    2
 0.02183876379521148   14    1    7    1
 0.0009271925717861969   14    1    7    3
 -0.004114943675152196   14    1    8    4
 -0.0115137361619278   14    1    9    7
 -0.02023655992664095   14    1   10    2
 0.002203545841693079   14    1   10    8
 0.01151768257498158   14    1   12    4
 -0.007786440790933059   14    1   12   10
 0.01934351246463657   14    1   14    1
 0.02106434989505917   14    2    4    1
 0.001318402908582134   14    2    4    3
 0.02221131207595951   14    2    7    2
 -0.003416445011091787   14    2    8    7
 -0.01169822575140105   14    2    9    4
 -0.02051602764547497   14    2   10    1
 -0.002133354542615107   14    2   10    3
 0.007659285104630918   14    2   10    9
 0.0128831523168115   14    2   12    7
 0.02038648224888655   14    2   14    2
 0.0004004923701579974   14    3    4    2
 0.000119126305352647   14    3    7    1
 0.004193000541781749   14    3    7    3
 0.004450622772505553   14    3    8    4
 0.004672827232086885   14    3    9    7
 -0.001998684032745018   14    3   10    2
 -0.006973608147171468   14    3   10    8
 0.006192248906038145   14    3   12    4
 -0.002226098765498474   14    3   12   10
 0.00118775990274411   14    3   14    1
 0.006730937950808077   14    3   14    3
 0.08137245513615608   14    4    2    1
 0.009451896128285541   14    4    3    2
 0.06874537503566616   14    4    6    5
 0.07702550544732738   14    4    7    4
 -0.01211562511887049   14    4    8    1
 0.06766252696808743   14    4    8    3
 -0.02920606720057507   14    4    9    2
 0.05319214957479805   14    4    9    8
 -0.06812900443419069   14    4   10    7
 -0.05328027451078322   14    4   11    6
 0.03077016446650251   14    4   12    1
 0.03905474643085164   14    4   12    3
 0.01803872131312866   14    4   12    9
 0.04972474552643615   14    4   13    5
 -0.06056417581491421   14    4   13   11
 0.06442612658814129   14    4   14    4
 0.004140065205830634   14    5    6    4
 0.004140065205830627   14    5    7    5
 -0.007424364961703787   14    5   10    6
 -0.007424364961703784   14    5   11    7
 0.007350690530852546   14    5   13    4
 -0.002758816187165546   14    5   13   10
 0.007350690530852549   14    5   14    5
 0.004001854547374508   14    6    5    4
 0.004399593852616976   14    6    7    6
 -0.007641410654156224   14    6   10    5
 -0.007641410654156224   14    6   11    4
 0.002915331827033851   14    6   11   10
 0.007733586615071496   14    6   13    7