 &FCI NORB=  26,NELEC=10,MS2=0,
  ORBSYM=1,1,1,1,1,1,1,1,1,1,1,1,1,1,1,1,1,1,1,1,1,1,1,1,1,1
  ISYM=1,
 &END
 0.9453914411066344    1    1    1    1
 0.1215586650043839    2    1    2    1
 0.7230304586480772    2    2    1    1
 0.6531799574889502    2    2    2    2
 0.1215586650043839    3    1    3    1
 0.02823051811024003    3    2    3    2
 0.7230304586480772    3    3    1    1
 0.5967189212684701    3    3    2    2
 0.6531799574889502    3    3    3    3
 0.03214694758206157    4    1    4    1
 0.03683157882236236    4    2    4    2
 0.03683157882236236    4    3    4    3
 0.5492538646665219    4    4    1    1
 0.5213766965183357    4    4    2    2
 0.5213766965183357    4    4    3    3
 0.5518760913646569    4    4    4    4
 -0.1580337986063741    5    1    1    1
 -0.07202490899898475    5    1    2    2
 -0.07202490899898477    5    1    3    3
 -0.01528262035077519    5    1    4    4
 0.06182313451975234    5    1    5    1
 0.01558889061712238    5    2    2    1
 0.02655757946223416    5    2    5    2
 0.01558889061712238    5    3    3    1
 0.02655757946223416    5    3    5    3
 0.07026357129565956    5    4    4    1
 0.2157827690470099    5    4    5    4
 0.6079903854916969    5    5    1    1
 0.5415993689230821    5    5    2    2
 0.5415993689230821    5    5    3    3
 0.5571071414379115    5    5    4    4
 -0.04303886925776805    5    5    5    1
 0.5773156240964927    5    5    5    5
 0.02534100039175554    6    1    4    3
 0.02135984546626382    6    1    6    1
 0.01153443060115497    6    2    6    2
 0.05426188724450273    6    3    4    1
 0.1215582212731693    6    3    5    4
 0.1071778778428876    6    3    6    3
 0.06091743313997051    6    4    3    1
 0.03637725547543032    6    4    5    3
 0.0675090981383929    6    4    6    4
 0.03377139465249961    6    5    4    3
 0.01926288856215456    6    5    6    1
 0.03846530766522152    6    5    6    5
 0.522655165418443    6    6    1    1
 0.4723238559737654    6    6    2    2
 0.5064894006762077    6    6    3    3
 0.4673506454755107    6    6    4    4
 -0.02304462699270658    6    6    5    1
 0.4719603575539827    6    6    5    5
 0.4486080322394869    6    6    6    6
 0.02534100039175571    7    1    4    2
 0.02135984546626413    7    1    7    1
 0.05426188724450309    7    2    4    1
 0.12155822127317    7    2    5    4
 0.08410901664057825    7    2    6    3
 0.107177877842889    7    2    7    2
 0.01153443060115503    7    3    6    2
 0.01153443060115509    7    3    7    3
 0.06091743313997077    7    4    2    1
 0.03637725547543044    7    4    5    2
 0.06750909813839337    7    4    7    4
 0.03377139465249975    7    5    4    2
 0.01926288856215471    7    5    7    1
 0.0384653076652218    7    5    7    5
 0.01708277235122131    7    6    3    2
 0.01729594142574217    7    6    7    6
 0.5226551654184461    7    7    1    1
 0.5064894006762105    7    7    2    2
 0.4723238559737676    7    7    3    3
 0.4673506454755127    7    7    4    4
 -0.02304462699270704    7    7    5    1
 0.4719603575539847    7    7    5    5
 0.4140161493880042    7    7    6    6
 0.4486080322394901    7    7    7    7
 -0.01579306123619787    8    1    4    1
 -0.02718625324385688    8    1    5    4
 -0.02652178019438889    8    1    6    3
 -0.02652178019438935    8    1    7    2
 0.009473103128692806    8    1    8    1
 -0.01602589640283278    8    2    4    2
 -0.01236142760795205    8    2    7    1
 -0.01123029568174136    8    2    7    5
 0.008981037820229403    8    2    8    2
 -0.01602589640283275    8    3    4    3
 -0.01236142760795195    8    3    6    1
 -0.01123029568174134    8    3    6    5
 0.008981037820229135    8    3    8    3
 -0.1057843289244469    8    4    1    1
 -0.09056608305317616    8    4    2    2
 -0.09056608305317634    8    4    3    3
 -0.072094575884699    8    4    4    4
 0.01217056258257474    8    4    5    1
 -0.07475517188005103    8    4    5    5
 -0.0582453022155135    8    4    6    6
 -0.05824530221551325    8    4    7    7
 0.03738436526503745    8    4    8    4
 -0.008825390188279653    8    5    4    1
 -0.01699865517705075    8    5    5    4
 -0.01478581965299045    8    5    6    3
 1.028942341255828e-15    8    5    6    6
 -0.01478581965299093    8    5    7    2
 0.007904227451618997    8    5    8    1
 -1.774455608573222e-15    8    5    8    4
 0.0230105665602702    8    5    8    5
 -0.02237538087822753    8    6    3    1
 -0.006776502296130874    8    6    5    3
 -0.01241592216746325    8    6    6    4
 0.01357346301217793    8    6    8    6
 -0.02237538087822773    8    7    2    1
 -0.006776502296130952    8    7    5    2
 -0.01241592216746359    8    7    7    4
 0.01357346301217647    8    7    8    7
 0.3430795731305632    8    8    1    1
 0.3337734673474295    8    8    2    2
 0.3337734673474288    8    8    3    3
 4.876015347877034e-15    8    8    4    1
 0.3602338620462878    8    8    4    4
 -0.002593206275080729    8    8    5    1
 -3.524364333856737e-15    8    8    5    4
 0.3615200888934953    8    8    5    5
 -1.781294950179542e-15    8    8    6    3
 0.3258373941604316    8    8    6    6
 0.3258373941604193    8    8    7    7
 -6.742598233417767e-15    8    8    8    1
 0.001280661169924547    8    8    8    4
 8.157143838777137e-14    8    8    8    5
 0.3508810121653148    8    8    8    8
 0.09247107771127017    9    1    1    1
 0.03613726761135165    9    1    2    2
 0.03613726761135165    9    1    3    3
 0.02156236726047561    9    1    4    4
 -0.03872010204921068    9    1    5    1
 0.04051529155320675    9    1    5    5
 0.01656320918368034    9    1    6    6
 0.01656320918368053    9    1    7    7
 -0.005538013821035964    9    1    8    4
 0.01141457747376459    9    1    8    8
 0.03190393879436816    9    1    9    1
 -0.02293052050913669    9    2    2    1
 -0.01319037003549654    9    2    5    2
 -0.01876811478164649    9    2    7    4
 0.00782864024800017    9    2    8    7
 0.01721528611988491    9    2    9    2
 -0.02293052050913668    9    3    3    1
 -0.01319037003549655    9    3    5    3
 -0.01876811478164643    9    3    6    4
 0.007828640248000011    9    3    8    6
 0.0172152861198849    9    3    9    3
 0.000355895684187896    9    4    4    1
 0.01407582719371611    9    4    5    4
 0.0001096781048213043    9    4    6    3
 0.0001096781048212309    9    4    7    2
 0.004446030378697478    9    4    8    1
 0.01817055265187644    9    4    8    5
 2.084547170258652e-15    9    4    8    8
 0.01918158383374793    9    4    9    4
 -0.132139469479566    9    5    1    1
 -0.08848868935002781    9    5    2    2
 -0.08848868935002781    9    5    3    3
 -0.04457171721030639    9    5    4    4
 0.03385107766960607    9    5    5    1
 -0.05805120798308475    9    5    5    5
 -0.04483644655761222    9    5    6    6
 -0.04483644655761293    9    5    7    7
 0.03276163259145995    9    5    8    4
 0.009436342834753713    9    5    8    8
 -0.0169304981524202    9    5    9    1
 0.0413491041941824    9    5    9    5
 -0.002952969039503845    9    6    4    3
 -0.002138952244653453    9    6    6    1
 0.0009320311263855982    9    6    6    5
 0.00451902621019559    9    6    8    3
 0.008276821553885259    9    6    9    6
 -0.002952969039503922    9    7    4    2
 -0.002138952244653512    9    7    7    1
 0.000932031126385454    9    7    7    5
 0.004519026210195675    9    7    8    2
 0.008276821553885171    9    7    9    7
 0.03016009609045635    9    8    4    1
 0.09896466258755583    9    8    5    4
 1.022489238029891e-15    9    8    5    5
 0.05401521378757242    9    8    6    3
 0.05401521378757184    9    8    7    2
 -1.283558620299923e-15    9    8    7    7
 -0.005636665299431041    9    8    8    1
 5.942777715164462e-15    9    8    8    4
 0.02519894370044915    9    8    8    5
 -1.898287385278787e-14    9    8    8    8
 0.03331143442094948    9    8    9    4
 0.1067943586761022    9    8    9    8
 0.4457870435298039    9    9    1    1
 0.4074589169973599    9    9    2    2
 0.4074589169973599    9    9    3    3
 0.3906378047153123    9    9    4    4
 -0.0259472444742369    9    9    5    1
 0.4015137156938793    9    9    5    5
 0.3648460021418937    9    9    6    6
 0.3648460021418943    9    9    7    7
 -0.02084952297039109    9    9    8    4
 0.3328792243813248    9    9    8    8
 0.01673263282506273    9    9    9    1
 -0.02092945636601326    9    9    9    5
 1.277582313584187e-15    9    9    9    8
 0.3566552681020095    9    9    9    9
 0.04997136426928144   10    1    2    1
 -0.004436239478620817   10    1    5    2
 0.0141606811152139   10    1    7    4
 -0.009514098865013193   10    1    8    7
 0.001193210853735723   10    1    9    2
 0.03183776742043858   10    1   10    1
 0.1858269454756694   10    2    1    1
 0.1312816461105673   10    2    2    2
 0.1199707815938776   10    2    3    3
 0.08424562761658301   10    2    4    4
 -0.04349169430885894   10    2    5    1
 0.09888725449958843   10    2    5    5
 0.06866119154497674   10    2    6    6
 0.06864613898061799   10    2    7    7
 -0.03261067997390832   10    2    8    4
 0.02733942287228883   10    2    8    8
 0.03067719849369092   10    2    9    1
 -0.0357600534416878   10    2    9    5
 0.04079955994489017   10    2    9    9
 0.07657841419492088   10    2   10    2
 0.005655432258344893   10    3    3    2
 -7.526282180021934e-06   10    3    7    6
 0.008109408690166423   10    3   10    3
 0.003000499639003446   10    4    4    2
 0.002829334952686371   10    4    7    1
 -0.00342450364008684   10    4    7    5
 -0.00450737358554386   10    4    8    2
 -0.003972710023879518   10    4    9    7
 0.00989077343754177   10    4   10    4
 -0.02563613851576332   10    5    2    1
 -0.003559428072488045   10    5    5    2
 -0.01650902750051184   10    5    7    4
 -0.001497124664061227   10    5    8    7
 0.005245810456050088   10    5    9    2
 -0.005834652848249004   10    5   10    1
 0.01538606702384732   10    5   10    5
 -0.0001741475220386209   10    6    6    2
 -0.0001741475220385796   10    6    7    3
 0.006372789734413713   10    6   10    6
 0.004182210642050396   10    7    4    1
 -0.005573682585742869   10    7    5    4
 0.004520320121401114   10    7    6    3
 0.004172025077324274   10    7    7    2
 -0.00726046615481526   10    7    8    1
 -0.01435046550395647   10    7    8    5
 -0.01328853754693937   10    7    9    4
 -0.02435030551560909   10    7    9    8
 0.03706047277853459   10    7   10    7
 -0.009640994848965162   10    8    4    2
 -0.006834406027611904   10    8    7    1
 -0.009916019220211542   10    8    7    5
 0.002536781775664214   10    8    8    2
 -0.004174635254076454   10    8    9    7
 5.335004910433559e-06   10    8   10    4
 0.006528048041031454   10    8   10    8
 0.02444150890470391   10    9    2    1
 0.001930218539262325   10    9    5    2
 0.007925713063538878   10    9    7    4
 -0.007442290835099682   10    9    8    7
 -0.01151459516920658   10    9    9    2
 0.00500199313161786   10    9   10    1
 -0.008638826905526687   10    9   10    5
 0.01759464645635238   10    9   10    9
 0.5229648976098652   10   10    1    1
 0.4863538277971617   10   10    2    2
 0.4537054921459438   10   10    3    3
 0.4134218466041372   10   10    4    4
 -0.04000473559008315   10   10    5    1
 0.4260918315750656   10   10    5    5
 0.3848468128683417   10   10    6    6
 0.4123734414004662   10   10    7    7
 -0.0524636456689495   10   10    8    4
 0.2970518981302512   10   10    8    8
 0.01990709572302937   10   10    9    1
 -0.05333613235637807   10   10    9    5
 0.3509448347621819   10   10    9    9
 0.06167024392768579   10   10   10    2
 0.413926964149773   10   10   10   10
 0.04997136426928138   11    1    3    1
 -0.004436239478620813   11    1    5    3
 0.01416068111521376   11    1    6    4
 -0.009514098865013211   11    1    8    6
 0.001193210853735731   11    1    9    3
 0.03183776742043853   11    1   11    1
 0.005655432258344884   11    2    3    2
 -7.526282180024105e-06   11    2    7    6
 0.008109408690166421   11    2   10    3
 0.008109408690166419   11    2   11    2
 0.1858269454756692   11    3    1    1
 0.1199707815938774   11    3    2    2
 0.1312816461105672   11    3    3    3
 0.08424562761658294   11    3    4    4
 -0.04349169430885889   11    3    5    1
 0.09888725449958836   11    3    5    5
 0.06864613898061654   11    3    6    6
 0.0686611915449778   11    3    7    7
 -0.0326106799739084   11    3    8    4
 0.02733942287228898   11    3    8    8
 0.03067719849369091   11    3    9    1
 -0.03576005344168776   11    3    9    5
 0.04079955994489008   11    3    9    9
 0.06035959681458799   11    3   10    2
 0.06500212749594862   11    3   10   10
 0.07657841419492081   11    3   11    3
 0.003000499639003471   11    4    4    3
 0.002829334952686319   11    4    6    1
 -0.003424503640086883   11    4    6    5
 -0.004507373585543924   11    4    8    3
 -0.003972710023879535   11    4    9    6
 0.009890773437541777   11    4   11    4
 -0.02563613851576329   11    5    3    1
 -0.003559428072488027   11    5    5    3
 -0.01650902750051184   11    5    6    4
 -0.001497124664061296   11    5    8    6
 0.005245810456050081   11    5    9    3
 -0.005834652848248979   11    5   11    1
 0.0153860670238473   11    5   11    5
 0.00418221064205007   11    6    4    1
 -0.005573682585743651   11    6    5    4
 0.004172025077323329   11    6    6    3
 0.004520320121400697   11    6    7    2
 -0.007260466154814681   11    6    8    1
 -0.01435046550395621   11    6    8    5
 8.171244408210764e-15   11    6    8    8
 -0.0132885375469394   11    6    9    4
 -0.02435030551560863   11    6    9    8
 0.0243148933097071   11    6   10    7
 0.03706047277853464   11    6   11    6
 -0.0001741475220385515   11    7    6    2
 -0.0001741475220385099   11    7    7    3
 0.006372789734413707   11    7   10    6
 0.006372789734413695   11    7   11    7
 -0.009640994848965178   11    8    4    3
 -0.006834406027611844   11    8    6    1
 -0.009916019220211543   11    8    6    5
 0.002536781775664493   11    8    8    3
 -0.004174635254076503   11    8    9    6
 5.335004910411747e-06   11    8   11    4
 0.006528048041031739   11    8   11    8
 0.02444150890470392   11    9    3    1
 0.001930218539262328   11    9    5    3
 0.007925713063538873   11    9    6    4
 -0.007442290835099688   11    9    8    6
 -0.01151459516920659   11    9    9    3
 0.00500199313161784   11    9   11    1
 -0.008638826905526691   11    9   11    5
 0.01759464645635238   11    9   11    9
 0.01632416782560897   11   10    3    2
 0.0137633142660614   11   10    7    6
 -0.001665941784131473   11   10   10    3
 -0.001665941784131477   11   10   11    2
 0.01790758204934625   11   10   11   10
 0.5229648976098651   11   11    1    1
 0.4537054921459438   11   11    2    2
 0.4863538277971616   11   11    3    3
 0.4134218466041372   11   11    4    4
 -0.0400047355900831   11   11    5    1
 0.4260918315750655   11   11    5    5
 0.4123734414004648   11   11    6    6
 0.3848468128683431   11   11    7    7
 -0.05246364566895019   11   11    8    4
 0.2970518981302682   11   11    8    8
 0.01990709572302937   11   11    9    1
 -0.05333613235637799   11   11    9    5
 0.3509448347621823   11   11    9    9
 0.06500212749594868   11   11   10    2
 0.3781118000510805   11   11   10   10
 0.06167024392768566   11   11   11    3
 0.4139269641497729   11   11   11   11
 0.08810773903158563   12    1    1    1
 0.05492347052870444   12    1    2    2
 0.05492347052870443   12    1    3    3
 0.04430020189102019   12    1    4    4
 -0.02214469739140972   12    1    5    1
 0.05240948083153912   12    1    5    5
 0.03252514981257214   12    1    6    6
 0.03252514981257267   12    1    7    7
 -0.01585310243443483   12    1    8    4
 0.01404325527400406   12    1    8    8
 0.01922582266436158   12    1    9    1
 -0.01668869311913068   12    1    9    5
 0.01758532207759601   12    1    9    9
 0.0339366556313789   12    1   10    2
 0.02796254611369253   12    1   10   10
 0.03393665563137889   12    1   11    3
 0.02796254611369246   12    1   11   11
 0.01978146892048277   12    1   12    1
 -0.0003636062498335622   12    2    2    1
 -0.001167258951458262   12    2    5    2
 -0.0003106647803815229   12    2    7    4
 -0.005060436574521916   12    2    8    7
 0.009460606398248451   12    2    9    2
 0.01151331014133573   12    2   10    1
 0.01069225245423816   12    2   10    5
 -0.009474903006685942   12    2   10    9
 0.02046504040423583   12    2   12    2
 -0.0003636062498335645   12    3    3    1
 -0.001167258951458262   12    3    5    3
 -0.0003106647803816558   12    3    6    4
 -0.005060436574521846   12    3    8    6
 0.009460606398248453   12    3    9    3
 0.01151331014133573   12    3   11    1
 0.01069225245423817   12    3   11    5
 -0.009474903006685943   12    3   11    9
 0.02046504040423583   12    3   12    3
 0.03079970872540404   12    4    4    1
 0.09053105698328379   12    4    5    4
 0.05042034650506774   12    4    6    3
 0.05042034650506823   12    4    7    2
 -0.01649455134058947   12    4    8    1
 -0.02669420135060245   12    4    8    5
 1.182031065013614e-15   12    4    8    8
 -0.01077062499162187   12    4    9    4
 0.01227340932910752   12    4    9    8
 0.02351875515101949   12    4   10    7
 0.02351875515101925   12    4   11    6
 0.06726548974095266   12    4   12    4
 0.06963636716302156   12    5    1    1
 0.06945315416188343   12    5    2    2
 0.06945315416188341   12    5    3    3
 0.1033342648619075   12    5    4    4
 0.0007478985974293412   12    5    5    1
 0.1047167025478388   12    5    5    5
 0.05608411566303437   12    5    6    6
 0.05608411566303525   12    5    7    7
 -0.03325994962841912   12    5    8    4
 0.02473824394123868   12    5    8    8
 0.007522624763228825   12    5    9    1
 -0.01882072094606061   12    5    9    5
 0.02492499900779263   12    5    9    9
 0.03457441718295517   12    5   10    2
 0.03552144110144997   12    5   10   10
 0.03457441718295515   12    5   11    3
 0.03552144110145001   12    5   11   11
 0.0198773740837845   12    5   12    1
 0.06179592381300981   12    5   12    5
 0.005016311049038504   12    6    4    3
 0.002508869515473384   12    6    6    1
 -0.0007990694408567782   12    6    6    5
 -0.005319951992150717   12    6    8    3
 -0.00404489118477296   12    6    9    6
 0.01231685676683752   12    6   11    4
 -1.020933776461081e-05   12    6   11    8
 0.01798380917211259   12    6   12    6
 0.005016311049038767   12    7    4    2
 0.002508869515473628   12    7    7    1
 -0.0007990694408563852   12    7    7    5
 -0.005319951992150834   12    7    8    2
 -0.004044891184772931   12    7    9    7
 0.01231685676683751   12    7   10    4
 -1.020933776463476e-05   12    7   10    8
 0.01798380917211258   12    7   12    7
 -0.02761502105262519   12    8    4    1
 -0.08477414269920867   12    8    5    4
 -0.04800154105458686   12    8    6    3
 2.599484659390742e-15   12    8    6    6
 -0.04800154105458697   12    8    7    2
 2.858406289829312e-15   12    8    7    7
 0.009209463733512882   12    8    8    1
 -1.834615116679246e-15   12    8    8    4
 -0.004221533207682135   12    8    8    5
 -3.057782232235452e-14   12    8    8    8
 -0.01434274656104841   12    8    9    4
 -0.06121061338391822   12    8    9    8
 0.004359824098359003   12    8   10    7
 0.004359824098359927   12    8   11    6
 -1.486040809244367e-15   12    8   12    1
 -0.03035480282521811   12    8   12    4
 0.04470732217355205   12    8   12    8
 0.04613005837981158   12    9    1    1
 0.03522052711628423   12    9    2    2
 0.03522052711628426   12    9    3    3
 -0.006629908809736549   12    9    4    4
 -0.01028338038665277   12    9    5    1
 -0.004245124111320426   12    9    5    5
 0.01072780903449122   12    9    6    6
 0.01072780903449101   12    9    7    7
 -0.01227542837064479   12    9    8    4
 -0.02531166485310643   12    9    8    8
 -0.005211450490589655   12    9    9    1
 -0.01896109617607992   12    9    9    5
 0.004731336604755214   12    9    9    9
 -0.001089269477610809   12    9   10    2
 0.02756058740496401   12    9   10   10
 -0.001089269477610923   12    9   11    3
 0.02756058740496382   12    9   11   11
 -0.004154511136236451   12    9   12    1
 -0.01226800560242641   12    9   12    5
 0.0299610975184932   12    9   12    9
 0.05403554532995622   12   10    2    1
 0.02500394344487453   12   10    5    2
 0.04895976017127663   12   10    7    4
 -0.00741786158936528   12   10    8    7
 -0.02176605886486857   12   10    9    2
 0.008229562233095277   12   10   10    1
 -0.02071093777173089   12   10   10    5
 0.0187387962209013   12   10   10    9
 -0.01329129412091532   12   10   12    2
 0.05412621015151807   12   10   12   10
 0.05403554532995624   12   11    3    1
 0.02500394344487455   12   11    5    3
 0.04895976017127656   12   11    6    4
 -0.007417861589365162   12   11    8    6
 -0.02176605886486858   12   11    9    3
 0.008229562233095258   12   11   11    1
 -0.02071093777173086   12   11   11    5
 0.01873879622090129   12   11   11    9
 -0.01329129412091532   12   11   12    3
 0.0541262101515181   12   11   12   11
 0.5067326742430781   12   12    1    1
 0.4781393009263427   12   12    2    2
 0.4781393009263427   12   12    3    3
 0.4718458492495427   12   12    4    4
 -0.02030655041124063   12   12    5    1
 0.4792876359438046   12   12    5    5
 0.4211586981914768   12   12    6    6
 0.4211586981914785   12   12    7    7
 -0.06102870657516558   12   12    8    4
 0.324458862640748   12   12    8    8
 0.01361421406445958   12   12    9    1
 -0.04809160432332936   12   12    9    5
 3.328626944460952e-15   12   12    9    8
 0.3662010495288638   12   12    9    9
 0.06310933594496348   12   12   10    2
 0.3972013188777607   12   12   10   10
 0.06310933594496336   12   12   11    3
 0.3972013188777605   12   12   11   11
 0.02979339873841815   12   12   12    1
 0.07107370474337105   12   12   12    5
 -4.807277354215322e-15   12   12   12    8
 0.01160579225359341   12   12   12    9
 0.4334338762176879   12   12   12   12
 0.01953436294286127   13    1    4    3
 0.01848169568573943   13    1    6    1
 0.01038738617513264   13    1    6    5
 -0.01133247585767021   13    1    8    3
 -0.002149908283342379   13    1    9    6
 0.007700564812275281   13    1   11    4
 -0.005653579571107239   13    1   11    8
 0.008766234124214477   13    1   12    6
 0.02025730244510658   13    1   13    1
 0.007534060054257429   13    2    6    2
 0.007534060054257506   13    2    7    3
 0.004995898602624838   13    2   10    6
 0.004995898602624876   13    2   11    7
 0.009114374668744938   13    2   13    2
 0.04154240511624743   13    3    4    1
 0.08362585782034319   13    3    5    4
 0.07849009012621407   13    3    6    3
 0.06342197001769967   13    3    7    2
 -0.02419132941284428   13    3    8    1
 -0.02138483934658019   13    3    8    5
 -0.00954039430065272   13    3    9    4
 0.02041662755301252   13    3    9    8
 0.02273003574821116   13    3   10    7
 0.03272183295346046   13    3   11    6
 0.05580457757178888   13    3   12    4
 -0.03216113701301433   13    3   12    8
 0.08180804462897964   13    3   13    3
 0.03221430070123144   13    4    3    1
 0.01525746348743014   13    4    5    3
 0.02723731714018947   13    4    6    4
 -0.01565286906404961   13    4    8    6
 -0.007164441415523913   13    4    9    3
 0.01614343436955826   13    4   11    1
 0.003982389930356112   13    4   11    5
 0.002232928818342451   13    4   11    9
 0.01506265927969436   13    4   12    3
 0.01168561464476805   13    4   12   11
 0.02858410165229759   13    4   13    4
 0.01536958248897045   13    5    4    3
 0.006699856064000434   13    5    6    1
 0.01342339357390783   13    5    6    5
 -0.00822521307225775   13    5    8    3
 -0.005518662712903074   13    5    9    6
 0.008319418404476914   13    5   11    4
 -0.001734908258914631   13    5   11    8
 0.01359549160126969   13    5   12    6
 0.007327328666301297   13    5   13    1
 0.01745539248719501   13    5   13    5
 0.1880636780901607   13    6    1    1
 0.1416027772880508   13    6    2    2
 0.1569255870400296   13    6    3    3
 0.1215165533594512   13    6    4    4
 -0.02878727005431014   13    6    5    1
 0.1294620865593712   13    6    5    5
 0.09593218590435802   13    6    6    6
 0.09120765364668758   13    6    7    7
 -0.04590823765695539   13    6    8    4
 0.03281498965231371   13    6    8    8
 0.02070413977114179   13    6    9    1
 -0.04060618910946816   13    6    9    5
 0.05195026319855277   13    6    9    9
 0.06032007043689419   13    6   10    2
 0.08026901870580112   13    6   10   10
 0.07376708126378986   13    6   11    3
 0.07930619865649575   13    6   11   11
 0.03294222873698674   13    6   12    1
 0.05100423536805451   13    6   12    5
 0.003830795471330679   13    6   12    9
 0.09207764094340558   13    6   12   12
 0.09049514482739206   13    6   13    6
 0.007661404875989506   13    7    3    2
 0.002362266128836015   13    7    7    6
 0.006723505413447905   13    7   10    3
 0.006723505413447907   13    7   11    2
 -0.0004814100246524586   13    7   11   10
 0.009183713636251501   13    7   13    7
 -0.02937425557287734   13    8    3    1
 -0.01556258078509012   13    8    5    3
 -0.03156490760093687   13    8    6    4
 1.85874316934986e-15   13    8    8    3
 0.0009922708524489011   13    8    8    6
 0.005832762621454766   13    8    9    3
 -0.00903708494729695   13    8   11    1
 0.008027311193124234   13    8   11    5
 1.765423152468783e-15   13    8   11    8
 0.00045192182302632   13    8   11    9
 -0.001769002187193506   13    8   12    3
 -0.02371295680609021   13    8   12   11
 -0.01142932686350007   13    8   13    4
 0.02068862916756913   13    8   13    8
 -0.00823271479956807   13    9    4    3
 -0.00358069423411065   13    9    6    1
 -0.01149855838521658   13    9    6    5
 0.0008335919168413547   13    9    8    3
 -0.004407745634938926   13    9    9    6
 0.002173680621329947   13    9   11    4
 0.006168885979285399   13    9   11    8
 0.002306714947934491   13    9   12    6
 -0.0006016841040214584   13    9   13    1
 -0.001982215867195217   13    9   13    5
 0.008216813524178844   13    9   13    9
 0.008012649199555274   13   10    6    2
 0.008012649199555313   13   10    7    3
 -0.001081525733190544   13   10   10    6
 -0.001081525733190473   13   10   11    7
 0.004837565224561505   13   10   13    2
 0.008354169581974463   13   10   13   10
 0.04262207753097984   13   11    4    1
 0.09696229270907211   13   11    5    4
 0.08548113338233293   13   11    6    3
 0.06945583498322291   13   11    7    2
 -0.02049527236573412   13   11    8    1
 -0.007190592764043069   13   11    8    5
 -1.21079084703629e-14   13   11    8    8
 0.003500315873043999   13   11    9    4
 0.05152584197798394   13   11    9    8
 0.002646112919145785   13   11   10    7
 0.0004830614527640137   13   11   11    6
 0.03883876472559371   13   11   12    4
 -0.04414489281826945   13   11   12    8
 0.06209175152093453   13   11   13    3
 0.08080101300888297   13   11   13   11
 0.02967852725113601   13   12    4    3
 0.01920726583216793   13   12    6    1
 0.03009234138311602   13   12    6    5
 -0.01100546269312493   13   12    8    3
 0.0009577241221644984   13   12    9    6
 0.0002700561581440997   13   12   11    4
 -0.01075424846105771   13   12   11    8
 0.0007213016741915126   13   12   12    6
 0.01355819240172021   13   12   13    1
 0.01055450401835294   13   12   13    5
 -0.009958611572304196   13   12   13    9
 0.03069454455785756   13   12   13   12
 0.561302351415789   13   13    1    1
 0.4916413704496309   13   13    2    2
 0.5233461001739581   13   13    3    3
 0.4718913567018677   13   13    4    4
 -0.03970048425805124   13   13    5    1
 0.4831753820407164   13   13    5    5
 0.4473956842418662   13   13    6    6
 0.4182871459997249   13   13    7    7
 -0.06678699787897206   13   13    8    4
 0.324052918200104   13   13    8    8
 0.02952118559241949   13   13    9    1
 -0.05767606068450719   13   13    9    5
 0.3636634778243784   13   13    9    9
 0.08976717171255084   13   13   10    2
 0.3948024215994447   13   13   10   10
 0.09586251833155168   13   13   11    3
 0.421276844834193   13   13   11   11
 0.04503807679876116   13   13   12    1
 0.06956409979672501   13   13   12    5
 0.006901893555363818   13   13   12    9
 0.4283457618353395   13   13   12   12
 0.1176625448301849   13   13   13    6
 0.4709981234623051   13   13   13   13
 0.01953436294286104   14    1    4    2
 0.01848169568573941   14    1    7    1
 0.01038738617513254   14    1    7    5
 -0.01133247585767018   14    1    8    2
 -0.002149908283342375   14    1    9    7
 0.007700564812275243   14    1   10    4
 -0.005653579571107156   14    1   10    8
 0.008766234124214551   14    1   12    7
 0.02025730244510625   14    1   14    1
 0.04154240511624696   14    2    4    1
 0.08362585782034214   14    2    5    4
 0.06342197001769839   14    2    6    3
 0.07849009012621383   14    2    7    2
 -0.02419132941284409   14    2    8    1
 -0.02138483934658002   14    2    8    5
 -3.660122410317607e-15   14    2    8    8
 -0.00954039430065272   14    2    9    4
 0.02041662755301304   14    2    9    8
 0.03272183295346083   14    2   10    7
 0.02273003574821067   14    2   11    6
 0.05580457757178843   14    2   12    4
 -0.03216113701301435   14    2   12    8
 0.06357929529148926   14    2   13    3
 0.05241662107181089   14    2   13   11
 0.0818080446289782   14    2   14    2