 &FCI NORB=  26,NELEC=10,MS2=0,
  ORBSYM=1,1,1,1,1,1,1,1,1,1,1,1,1,1,1,1,1,1,1,1,1,1,1,1,1,1
  ISYM=1,
 &END
 0.5316487792705169    1    1    1    1
 0.1722560810809897    2    1    2    1
 0.480519473432412    2    2    1    1
 0.4916330851810668    2    2    2    2
 -0.0648722495207659    3    1    1    1
 0.006715839605230083    3    1    2    2
 0.082987191173003    3    1    3    1
 0.1035227829638027    3    2    2    1
 0.113771139413314    3    2    3    2
 0.4921240166969588    3    3    1    1
 0.4821004213615043    3    3    2    2
 -0.01883812933349025    3    3    3    1
 0.5035094185948026    3    3    3    3
 0.07309691925482301    4    1    4    1
 0.05637389731524115    4    2    4    2
 0.001595501074031023    4    3    4    1
 0.0198162512358787    4    3    4    3
 0.4769686926530615    4    4    1    1
 0.451891195899036    4    4    2    2
 -0.03290480105212124    4    4    3    1
 0.4439931172757137    4    4    3    3
 0.464120622658848    4    4    4    4
 0.07309691925482301    5    1    5    1
 0.05637389731524115    5    2    5    2
 0.001595501074031024    5    3    5    1
 0.0198162512358787    5    3    5    3
 0.01706275610158013    5    4    5    4
 0.4769686926530615    5    5    1    1
 0.451891195899036    5    5    2    2
 -0.03290480105212124    5    5    3    1
 0.4439931172757137    5    5    3    3
 0.4299951104556877    5    5    4    4
 0.464120622658848    5    5    5    5
 0.05499559552056353    6    1    5    2
 0.05467076356383122    6    1    6    1
 0.06967026267727659    6    2    5    1
 0.01406290756687987    6    2    5    3
 0.0747370466995714    6    2    6    2
 0.02058595021634324    6    3    5    2
 0.01640474758858796    6    3    6    1
 0.02118420382831089    6    3    6    3
 0.01567581714348867    6    4    6    4
 0.1700533583406993    6    5    2    1
 0.09730597277497768    6    5    3    2
 0.1902745928211966    6    5    6    5
 0.4724862561630202    6    6    1    1
 0.4637392655029726    6    6    2    2
 -0.01491227829072311    6    6    3    1
 0.4491580369175037    6    6    3    3
 0.430312110492996    6    6    4    4
 0.4645155371716706    6    6    5    5
 0.4724642769778863    6    6    6    6
 0.05499559552056359    7    1    4    2
 0.05467076356383134    7    1    7    1
 0.06967026267727666    7    2    4    1
 0.01406290756687988    7    2    4    3
 0.07473704669957151    7    2    7    2
 0.02058595021634324    7    3    4    2
 0.01640474758858796    7    3    7    1
 0.02118420382831093    7    3    7    3
 0.1700533583406995    7    4    2    1
 0.09730597277497779    7    4    3    2
 0.1589229585342195    7    4    6    5
 0.190274592821197    7    4    7    4
 0.01567581714348868    7    5    6    4
 0.01567581714348869    7    5    7    5
 0.01710171333933729    7    6    5    4
 0.01828769280520589    7    6    7    6
 0.4724862561630209    7    7    1    1
 0.4637392655029733    7    7    2    2
 -0.01491227829072319    7    7    3    1
 0.4491580369175045    7    7    3    3
 0.4645155371716713    7    7    4    4
 0.4303121104929967    7    7    5    5
 0.4358888913674751    7    7    6    6
 0.4724642769778876    7    7    7    7
 -0.05457041938083016    8    1    2    1
 0.02119139720664361    8    1    3    2
 -0.05702984103790893    8    1    6    5
 -0.05702984103790904    8    1    7    4
 0.07541402158814008    8    1    8    1
 -0.06643056599799919    8    2    1    1
 -0.0102904915072406    8    2    2    2
 0.06523368210543866    8    2    3    1
 -0.01370147272274656    8    2    3    3
 -0.04651013703301905    8    2    4    4
 -0.04651013703301905    8    2    5    5
 -0.03444627064460386    8    2    6    6
 -0.03444627064460401    8    2    7    7
 0.06478726578681995    8    2    8    2
 0.1518491922493592    8    3    2    1
 0.09702150558826919    8    3    3    2
 0.1415808910021497    8    3    6    5
 0.1415808910021499    8    3    7    4
 -0.04732058094299259    8    3    8    1
 0.157719868076299    8    3    8    3
 -0.01652079619314354    8    4    4    2
 -0.02017448743587904    8    4    7    1
 0.009093554749032796    8    4    7    3
 0.02163145761824484    8    4    8    4
 -0.01652079619314354    8    5    5    2
 -0.020174487435879    8    5    6    1
 0.009093554749032782    8    5    6    3
 0.02163145761824484    8    5    8    5
 -0.02606648430968722    8    6    5    1
 0.01366594718604438    8    6    5    3
 -0.01686046711155428    8    6    6    2
 0.02323764547778306    8    6    8    6
 -0.02606648430968728    8    7    4    1
 0.0136659471860444    8    7    4    3
 -0.01686046711155436    8    7    7    2
 0.02323764547778314    8    7    8    7
 0.5138079501156383    8    8    1    1
 0.4757019591447025    8    8    2    2
 -0.05240650317799429    8    8    3    1
 0.4971673971481604    8    8    3    3
 0.4568091274607349    8    8    4    4
 0.4568091274607348    8    8    5    5
 0.4569676971224358    8    8    6    6
 0.4569676971224366    8    8    7    7
 -0.04981492910134738    8    8    8    2
 0.5221812592189415    8    8    8    8
 0.01374661754026324    9    1    2    1
 0.02574511670299348    9    1    3    2
 0.01236608990848117    9    1    6    5
 0.01236608990848122    9    1    7    4
 0.01464421875351582    9    1    8    1
 0.00599140901329818    9    1    8    3
 0.01627436292553863    9    1    9    1
 0.04604652504471472    9    2    1    1
 0.06667555201592602    9    2    2    2
 0.02202987675908993    9    2    3    1
 0.05921733625190565    9    2    3    3
 0.04589501630269764    9    2    4    4
 0.04589501630269762    9    2    5    5
 0.05213124433244366    9    2    6    6
 0.05213124433244388    9    2    7    7
 0.01328081459189992    9    2    8    2
 0.04315043733322616    9    2    8    8
 0.0384621282214791    9    2    9    2
 0.0742879360081739    9    3    2    1
 0.0438074275422491    9    3    3    2
 0.06751414984272591    9    3    6    5
 0.06751414984272605    9    3    7    4
 -0.02901898877627814    9    3    8    1
 0.07003105276036152    9    3    8    3
 0.01807762316167047    9    3    9    1
 0.07029164587885038    9    3    9    3
 0.005676042244455143    9    4    4    2
 0.00426236886125642    9    4    7    1
 0.005844001001903767    9    4    7    3
 0.002162151130642108    9    4    8    4
 0.00783013185727411    9    4    9    4
 0.005676042244455141    9    5    5    2
 0.004262368861256405    9    5    6    1
 0.005844001001903743    9    5    6    3
 0.002162151130642109    9    5    8    5
 0.007830131857274112    9    5    9    5
 0.003066758533704935    9    6    5    1
 0.005935964794227601    9    6    5    3
 0.006514618006755134    9    6    6    2
 0.002237972339481861    9    6    8    6
 0.01043884230566104    9    6    9    6
 0.003066758533704991    9    7    4    1
 0.005935964794227641    9    7    4    3
 0.006514618006755238    9    7    7    2
 0.002237972339481885    9    7    8    7
 0.01043884230566105    9    7    9    7
 0.103751948868777    9    8    1    1
 0.0879989362874424    9    8    2    2
 -0.0224870766775743    9    8    3    1
 0.09624433313228513    9    8    3    3
 0.08175253603742139    9    8    4    4
 0.08175253603742143    9    8    5    5
 0.08136191329363811    9    8    6    6
 0.08136191329363834    9    8    7    7
 -0.0238725845034238    9    8    8    2
 0.1035196143201417    9    8    8    8
 0.03283108424647791    9    8    9    2
 0.06311686474746751    9    8    9    8
 0.3792050525306346    9    9    1    1
 0.4041908276666843    9    9    2    2
 0.02280150003489387    9    9    3    1
 0.4102554575327703    9    9    3    3
 0.3597669705766636    9    9    4    4
 0.3597669705766636    9    9    5    5
 0.3729367913865739    9    9    6    6
 0.3729367913865743    9    9    7    7
 0.01878874180072086    9    9    8    2
 0.3996493264106235    9    9    8    8
 0.04441710722343113    9    9    9    2
 0.05106251806354752    9    9    9    8
 0.3866912283077478    9    9    9    9
 -0.01745303705472611   10    1    4    1
 -0.005823670997299642   10    1    4    3
 -0.02196994853033941   10    1    7    2
 0.007391694090732071   10    1    8    7
 -0.007249658806478523   10    1    9    7
 0.02094174881613116   10    1   10    1
 -0.02716499471077237   10    2    4    2
 -0.02653434885900286   10    2    7    1
 -0.009681656167446439   10    2    7    3
 0.008646021195562197   10    2    8    4
 -0.008503532232575033   10    2    9    4
 0.02338168744390238   10    2   10    2
 -0.01089063106316683   10    3    4    1
 -0.006227079931044512   10    3    4    3
 -0.01320730071107031   10    3    7    2
 -0.002236660493256589   10    3    8    7
 -0.008544605262627233   10    3    9    7
 0.003450446167974661   10    3   10    1
 0.01018014233157174   10    3   10    3
 -0.09204166796809811   10    4    1    1
 -0.09863643660379372   10    4    2    2
 -0.003164083748344021   10    4    3    1
 -0.08961399964902711   10    4    3    3
 -0.08318037086988855   10    4    4    4
 -0.07708085707888752   10    4    5    5
 -0.0849254698698839   10    4    6    6
 -0.094549071740386   10    4    7    7
 0.01047031708642597   10    4    8    2
 -0.09584031356762469   10    4    8    8
 -0.03157245829632541   10    4    9    2
 -0.04319752471227119   10    4    9    8
 -0.06912533078523432   10    4    9    9
 0.07154778719785945   10    4   10    4
 -0.003049756895500516   10    5    5    4
 -0.004811800935250868   10    5    7    6
 0.008476261799209892   10    5   10    5
 -0.00605561308217914   10    6    6    4
 -0.006055613082179162   10    6    7    5
 0.007982383110543594   10    6   10    6
 -0.08914980028960312   10    7    2    1
 -0.04664041903018337   10    7    3    2
 -0.0813533529820681   10    7    6    5
 -0.09346457914642664   10    7    7    4
 0.03685639671271448   10    7    8    1
 -0.07484768064987382   10    7    8    3
 -0.01327285514702637   10    7    9    1
 -0.05705765554109282   10    7    9    3
 0.07903204057421373   10    7   10    7
 0.009516428486304192   10    8    4    2
 0.01148288269860428   10    8    7    1
 -0.003692904704638724   10    8    7    3
 -0.01069349116224922   10    8    8    4
 -0.004143387042006818   10    8    9    4
 -0.005737533362363949   10    8   10    2
 0.01051362355185126   10    8   10    8
 -0.01906923855101565   10    9    4    2
 -0.01624249970462771   10    9    7    1
 -0.01544238629223451   10    9    7    3
 -0.004004203131242784   10    9    8    4
 -0.004045563911453538   10    9    9    4
 0.008836973893812553   10    9   10    2
 0.001360257999750188   10    9   10    8
 0.01484608516631182   10    9   10    9
 0.4400873518026433   10   10    1    1
 0.4239950923323125   10   10    2    2
 -0.02282873723799792   10   10    3    1
 0.4162000638725369   10   10    3    3
 0.4317161640984268   10   10    4    4
 0.4037133562729581   10   10    5    5
 0.4056587626524589   10   10    6    6
 0.4334575226438125   10   10    7    7
 -0.03674687537990939   10   10    8    2
 0.4264907958340426   10   10    8    8
 0.04693380593666205   10   10    9    2
 0.07794399412398346   10   10    9    8
 0.3495985061270983   10   10    9    9
 -0.07910133810220629   10   10   10    4
 0.4200876682316013   10   10   10   10
 -0.0174530370547261   11    1    5    1
 -0.005823670997299636   11    1    5    3
 -0.02196994853033936   11    1    6    2
 0.00739169409073205   11    1    8    6
 -0.007249658806478509   11    1    9    6
 0.02094174881613116   11    1   11    1
 -0.02716499471077237   11    2    5    2
 -0.02653434885900281   11    2    6    1
 -0.009681656167446416   11    2    6    3
 0.008646021195562202   11    2    8    5
 -0.008503532232575033   11    2    9    5
 0.02338168744390238   11    2   11    2
 -0.01089063106316682   11    3    5    1
 -0.006227079931044508   11    3    5    3
 -0.01320730071107027   11    3    6    2
 -0.00223666049325658   11    3    8    6
 -0.008544605262627214   11    3    9    6
 0.003450446167974655   11    3   11    1
 0.01018014233157173   11    3   11    3
 -0.003049756895500515   11    4    5    4
 -0.004811800935250865   11    4    7    6
 0.00847626179920989   11    4   10    5
 0.00847626179920989   11    4   11    4
 -0.0920416679680981   11    5    1    1
 -0.09863643660379366   11    5    2    2
 -0.00316408374834402   11    5    3    1
 -0.08961399964902704   11    5    3    3
 -0.07708085707888745   11    5    4    4
 -0.08318037086988851   11    5    5    5
 -0.09454907174038554   11    5    6    6
 -0.08492546986988413   11    5    7    7
 0.010470317086426   11    5    8    2
 -0.09584031356762465   11    5    8    8
 -0.03157245829632541   11    5    9    2
 -0.04319752471227123   11    5    9    8
 -0.06912533078523424   11    5    9    9
 0.05459526359943966   11    5   10    4
 -0.07475296788016826   11    5   10   10
 0.07154778719785945   11    5   11    5
 -0.08914980028960268   11    6    2    1
 -0.0466404190301831   11    6    3    2
 -0.09346457914642595   11    6    6    5
 -0.08135335298206781   11    6    7    4
 0.03685639671271435   11    6    8    1
 -0.07484768064987345   11    6    8    3
 -0.01327285514702633   11    6    9    1
 -0.05705765554109261   11    6    9    3
 0.06306727435312628   11    6   10    7
 0.07903204057421327   11    6   11    6
 -0.006055613082179171   11    7    6    4
 -0.006055613082179193   11    7    7    5
 0.007982383110543606   11    7   10    6
 0.00798238311054362   11    7   11    7
 0.009516428486304204   11    8    5    2
 0.01148288269860426   11    8    6    1
 -0.003692904704638701   11    8    6    3
 -0.01069349116224923   11    8    8    5
 -0.004143387042006818   11    8    9    5
 -0.005737533362363956   11    8   11    2
 0.01051362355185127   11    8   11    8
 -0.01906923855101566   11    9    5    2
 -0.01624249970462771   11    9    6    1
 -0.0154423862922345   11    9    6    3
 -0.004004203131242784   11    9    8    5
 -0.004045563911453536   11    9    9    5
 0.008836973893812546   11    9   11    2
 0.001360257999750184   11    9   11    8
 0.01484608516631181   11    9   11    9
 0.01400140391273435   11   10    5    4
 0.01389937999567656   11   10    7    6
 -0.002174185111018991   11   10   10    5
 -0.00217418511101899   11   10   11    4
 0.01513003598883361   11   10   11   10
 0.4400873518026434   11   11    1    1
 0.4239950923323125   11   11    2    2
 -0.02282873723799794   11   11    3    1
 0.4162000638725371   11   11    3    3
 0.4037133562729581   11   11    4    4
 0.4317161640984268   11   11    5    5
 0.4334575226438119   11   11    6    6
 0.4056587626524595   11   11    7    7
 -0.03674687537990941   11   11    8    2
 0.4264907958340426   11   11    8    8
 0.04693380593666201   11   11    9    2
 0.07794399412398371   11   11    9    8
 0.349598506127098   11   11    9    9
 -0.07475296788016833   11   11   10    4
 0.3898275962539338   11   11   10   10
 -0.0791013381022062   11   11   11    5
 0.4200876682316014   11   11   11   11
 -0.04994950675461625   12    1    1    1
 -0.06004618470501479   12    1    2    2
 -0.009495376124812103   12    1    3    1
 -0.05273035158736928   12    1    3    3
 -0.04562248168957279   12    1    4    4
 -0.04562248168957279   12    1    5    5
 -0.05096995461371918   12    1    6    6
 -0.05096995461371937   12    1    7    7
 -0.0003907777079717065   12    1    8    2
 -0.0491300395911323   12    1    8    8
 -0.02746772016248864   12    1    9    2
 -0.02893794717352842   12    1    9    8
 -0.03955791861078893   12    1    9    9
 0.0345285829242357   12    1   10    4
 -0.04536334097763314   12    1   10   10
 0.03452858292423569   12    1   11    5
 -0.04536334097763312   12    1   11   11
 0.02410723193729137   12    1   12    1
 -0.06197912641418624   12    2    2    1
 -0.04266583518172843   12    2    3    2
 -0.05733789985950555   12    2    6    5
 -0.0573378998595057   12    2    7    4
 0.0157733857253652   12    2    8    1
 -0.05119639349751801   12    2    8    3
 -0.02061601834118593   12    2    9    1
 -0.05567993774951251   12    2    9    3
 0.05177573469151119   12    2   10    7
 0.05177573469151103   12    2   11    6
 0.05039131860707697   12    2   12    2
 -0.07393880621595982   12    3    1    1
 -0.07928051474290945   12    3    2    2
 -0.00336955374854097   12    3    3    1
 -0.079379613312433   12    3    3    3
 -0.06397998619530167   12    3    4    4
 -0.06397998619530168   12    3    5    5
 -0.06695273705496864   12    3    6    6
 -0.06695273705496887   12    3    7    7
 0.00157043764081961   12    3    8    2
 -0.07050160071256184   12    3    8    8
 -0.04023943805728471   12    3    9    2
 -0.04856598303164703   12    3    9    8
 -0.05029578821663658   12    3    9    9
 0.03818393037052124   12    3   10    4
 -0.0635491845061181   12    3   10   10
 0.03818393037052124   12    3   11    5
 -0.06354918450611806   12    3   11   11
 0.03056518409815666   12    3   12    1
 0.04847073977977032   12    3   12    3
 -0.004758360657390215   12    4    4    1
 -0.004106265069134992   12    4    4    3
 -0.007889496999728011   12    4    7    2
 0.001864101871549236   12    4    8    7
 -0.01023725020153019   12    4    9    7
 0.01379549929359009   12    4   10    1
 0.006362703776481345   12    4   10    3
 0.01379652572719616   12    4   12    4
 -0.004758360657390215   12    5    5    1
 -0.004106265069134992   12    5    5    3
 -0.007889496999727968   12    5    6    2
 0.001864101871549239   12    5    8    6
 -0.0102372502015302   12    5    9    6
 0.01379549929359009   12    5   11    1
 0.006362703776481345   12    5   11    3
 0.01379652572719615   12    5   12    5
 -0.01086805850022004   12    6    5    2
 -0.01038968561819313   12    6    6    1
 -0.004020992128247307   12    6    6    3
 0.003667810893082844   12    6    8    5
 -0.009660690216312716   12    6    9    5
 0.01664653966903906   12    6   11    2
 -0.0002354955652572709   12    6   11    8
 0.003325335200174183   12    6   11    9
 0.01629318986595738   12    6   12    6
 -0.01086805850022014   12    7    4    2
 -0.01038968561819326   12    7    7    1
 -0.004020992128247383   12    7    7    3
 0.003667810893082851   12    7    8    4
 -0.009660690216312717   12    7    9    4
 0.0166465396690391   12    7   10    2
 -0.0002354955652572809   12    7   10    8
 0.003325335200174242   12    7   10    9
 0.01629318986595739   12    7   12    7
 -0.002371479129852572   12    8    2    1
 -0.002842510787153849   12    8    3    2
 0.0007435221619117502   12    8    6    5
 0.0007435221619117243   12    8    7    4
 0.001717315720206216   12    8    8    1
 -0.001411084329225719   12    8    8    3
 -0.01206901356375971   12    8    9    1
 -0.02989262503554939   12    8    9    3
 0.01233850534598628   12    8   10    7
 0.0123385053459863   12    8   11    6
 0.02308370064797665   12    8   12    2
 0.02412803680123729   12    8   12    8
 -0.1417322545294321   12    9    2    1
 -0.1251044668432945   12    9    3    2
 -0.1367403198945447   12    9    6    5
 -0.1367403198945449   12    9    7    4
 0.004890363643484969   12    9    8    1
 -0.141702429648926   12    9    8    3
 -0.01545845019740628   12    9    9    1
 -0.04852578354412447   12    9    9    3
 0.06174153652791235   12    9   10    7
 0.06174153652791192   12    9   11    6
 0.04318803591567931   12    9   12    2
 -0.0107781324467392   12    9   12    8
 0.1762274530074334   12    9   12    9
 0.0392639651794149   12   10    4    1
 0.01132232098140896   12   10    4    3
 0.04361029752630838   12   10    7    2
 -0.005283184013004487   12   10    8    7
 0.003271841197472321   12   10    9    7
 -0.009764877476845815   12   10   10    1
 -0.009123981877226038   12   10   10    3
 -0.002368649404799621   12   10   12    4
 0.031613932332548   12   10   12   10
 0.0392639651794149   12   11    5    1
 0.01132232098140897   12   11    5    3
 0.04361029752630836   12   11    6    2
 -0.005283184013004469   12   11    8    6
 0.003271841197472262   12   11    9    6
 -0.009764877476845802   12   11   11    1
 -0.009123981877226022   12   11   11    3
 -0.00236864940479961   12   11   12    5
 0.03161393233254802   12   11   12   11
 0.3739284711613926   12   12    1    1
 0.4013777745524546   12   12    2    2
 0.02716664912484662   12   12    3    1
 0.3985032720667688   12   12    3    3
 0.3613856817381597   12   12    4    4
 0.3613856817381597   12   12    5    5
 0.374360925952026   12   12    6    6
 0.3743609259520264   12   12    7    7
 0.01854462988270815   12   12    8    2
 0.383941586115745   12   12    8    8
 0.04441991765666675   12   12    9    2
 0.04510973351337372   12   12    9    8
 0.3728362352586764   12   12    9    9
 -0.06296906729988785   12   12   10    4
 0.3500266064138007   12   12   10   10
 -0.06296906729988776   12   12   11    5
 0.3500266064138009   12   12   11   11
 -0.03774073134319553   12   12   12    1
 -0.04747763586683389   12   12   12    3
 0.3668122235584795   12   12   12   12
 0.01956897793615908   13    1    5    2
 0.02067860962848111   13    1    6    1
 0.00140777313280828   13    1    6    3
 -0.01241789864517918   13    1    8    5
 0.004951731005532865   13    1    9    5
 -0.01889157238803475   13    1   11    2
 0.008071809387636372   13    1   11    8
 -0.003031989041377635   13    1   11    9
 -0.01363312311807596   13    1   12    6
 0.01797009027366081   13    1   13    1
 0.01890419125641048   13    2    5    1
 0.001350157305784164   13    2    5    3
 0.01979244971036809   13    2    6    2
 -0.009873938369798727   13    2    8    6
 0.009354102914738356   13    2    9    6
 -0.01849615040235461   13    2   11    1
 -0.006391636349294728   13    2   11    3
 -0.0148396460363082   13    2   12    5
 0.008722502017038093   13    2   12   11
 0.01975813548593619   13    2   13    2
 -0.001305882753106168   13    3    5    2
 -0.002804578085514616   13    3    6    1
 0.004014671095512452   13    3    6    3
 0.005016124688421557   13    3    8    5
 0.007596041823327964   13    3    9    5
 -0.004752838768964383   13    3   11    2
 -0.006290090979552279   13    3   11    8
 -0.002462584208930987   13    3   11    9
 -0.008218784636509609   13    3   12    6
 0.00173654772036501   13    3   13    1
 0.008441993102543784   13    3   13    3
 0.003947574384531992   13    4    6    4
 0.003947574384532012   13    4    7    5
 -0.007130662871803   13    4   10    6
 -0.007130662871803009   13    4   11    7
 0.006850247926920455   13    4   13    4
 0.06345449639314855   13    5    2    1
 0.02446915012358707   13    5    3    2
 0.06526417224283469   13    5    6    5
 0.05736902347377082   13    5    7    4
 -0.03616938489001344   13    5    8    1
 0.05347112005277016   13    5    8    3
 0.009067102791944275   13    5    9    1
 0.04730514492816641   13    5    9    3
 -0.05133912639088768   13    5   10    7
 -0.06560045213449356   13    5   11    6
 -0.04252200711454836   13    5   12    2
 -0.01260860334893761   13    5   12    8
 -0.03554068716813196   13    5   12    9
 0.05800187497144076   13    5   13    5
 0.1072155557280068   13    6    1    1
 0.09925830956531057   13    6    2    2
 -0.01320505900415213   13    6    3    1
 0.09492276134666836   13    6    3    3
 0.08673721041310288   13    6    4    4
 0.09379011968482423   13    6    5    5
 0.09847068619331571   13    6    6    6
 0.09010723599157763   13    6    7    7
 -0.02321146401597959   13    6    8    2
 0.1060894729432369   13    6    8    8
 0.03113353708211153   13    6    9    2
 0.04991393033766871   13    6    9    8
 0.0638952586015572   13    6    9    9
 -0.05350825130338101   13    6   10    4
 0.08359009585429104   13    6   10   10
 -0.06865535915260292   13    6   11    5
 0.08981550208442249   13    6   11   11
 -0.03442528076374186   13    6   12    1
 -0.04183137007944526   13    6   12    3
 0.05749479185256794   13    6   12   12
 0.07337162339168343   13    6   13    6
 0.003526454635860688   13    7    5    4
 0.004181725100869229   13    7    7    6
 -0.007573553924610941   13    7   10    5
 -0.007573553924610943   13    7   11    4
 0.003112703115065705   13    7   11   10
 0.008001597317213074   13    7   13    7
 -0.02108576777215462   13    8    5    1
 0.003765842438860429   13    8    5    3
 -0.01858791432923062   13    8    6    2
 0.01240344460991668   13    8    8    6
 0.005129940873715686   13    8    9    6
 0.008701182425619238   13    8   11    1
 -0.004004171401463211   13    8   11    3
 -0.0003261868520289681   13    8   12    5
 -0.009214953214892439   13    8   12   11
 -0.006330398192769171   13    8   13    2
 0.01442655637038655   13    8   13    8
 0.01814588537513725   13    9    5    1
 0.01344791458222408   13    9    5    3
 0.024820156307326   13    9    6    2
 0.005444250213326034   13    9    8    6
 0.001298251681669905   13    9    9    6
 -0.003367251435247714   13    9   11    1
 -0.006029529201425285   13    9   11    3
 0.000680372738010839   13    9   12    5
 0.02143684443767927   13    9   12   11
 0.0009192567586951387   13    9   13    2
 -0.003017490208079939   13    9   13    8
 0.01971416594865428   13    9   13    9
 -0.0112348124635353   13   10    6    4
 -0.0112348124635353   13   10    7    5
 0.004462984586564266   13   10   10    6
 0.004462984586564295   13   10   11    7
 -0.002793615351181404   13   10   13    4
 0.01103614000834007   13   10   13   10
 -0.1414572970508936   13   11    2    1
 -0.08254765398782007   13   11    3    2
 -0.1576275657473029   13   11    6    5
 -0.1351579408202325   13   11    7    4
 0.04700952369911679   13   11    8    1
 -0.1217224538965727   13   11    8    3
 -0.009872222162597312   13   11    9    1
 -0.05939657535955811   13   11    9    3
 0.07228695541896399   13   11   10    7
 0.08121292459209212   13   11   11    6
 0.04993000728868432   13   11   12    2
 -0.0005107388136914857   13   11   12    8
 0.1238910000679605   13   11   12    9
 -0.05703878904888287   13   11   13    5
 0.1449860137693526   13   11   13   11
 -0.03523085596926888   13   12    5    2
 -0.03280877867934436   13   12    6    1
 -0.01879218837693982   13   12    6    3
 0.003341202332925572   13   12    8    5
 -0.001425841922744837   13   12    9    5
 0.01324232836009882   13   12   11    2
 -0.004648222055204522   13   12   11    8
 0.01941195513560644   13   12   11    9
 0.001265426310679423   13   12   12    6
 -0.006845336606602437   13   12   13    1
 0.002272482136298539   13   12   13    3
 0.03240878513361371   13   12   13   12
 0.4134751744607615   13   13    1    1
 0.4050160096807434   13   13    2    2
 -0.01417363032430996   13   13    3    1
 0.3963980814475365   13   13    3    3
 0.3821012888671854   13   13    4    4
 0.4071732845214072   13   13    5    5
 0.4134202779988765   13   13    6    6
 0.3867843350382783   13   13    7    7
 -0.02833519706978328   13   13    8    2
 0.4061411482549471   13   13    8    8
 0.03867759560859042   13   13    9    2
 0.06556227726916551   13   13    9    8
 0.3436052207058067   13   13    9    9
 -0.06904180616718804   13   13   10    4
 0.3691102348555643   13   13   10   10
 -0.07330443549320899   13   13   11    5
 0.3956561878786328   13   13   11   11
 -0.03907049952729123   13   13   12    1
 -0.05168479429890861   13   13   12    3
 0.3438429631545774   13   13   12   12
 0.07650280810234421   13   13   13    6
 0.3825024788974042   13   13   13   13
 0.01956897793615891   14    1    4    2
 0.020678609628481   14    1    7    1
 0.001407773132808238   14    1    7    3
 -0.01241789864517912   14    1    8    4
 0.004951731005532849   14    1    9    4
 -0.01889157238803468   14    1   10    2
 0.00807180938763633   14    1   10    8
 -0.003031989041377587   14    1   10    9
 -0.01363312311807596   14    1   12    7
 0.0179700902736607   14    1   14    1
 0.01890419125641028   14    2    4    1
 0.001350157305784125   14    2    4    3
 0.01979244971036793   14    2    7    2
 -0.00987393836979869   14    2    8    7
 0.009354102914738342   14    2    9    7
 -0.01849615040235456   14    2   10    1
 -0.006391636349294693   14    2   10    3
 -0.01483964603630819   14    2   12    4
 0.00872250201703798   14    2   12   10
 0.01975813548593608   14    2   14    2
 -0.001305882753106226   14    3    4    2
 -0.002804578085514656   14    3    7    1
 0.004014671095512414   14    3    7    3
 0.005016124688421528   14    3    8    4
 0.007596041823327945   14    3    9    4
 -0.004752838768964359   14    3   10    2
 -0.006290090979552266   14    3   10    8
 -0.002462584208930942   14    3   10    9
 -0.008218784636509597   14    3   12    7
 0.001736547720365019   14    3   14    1
 0.008441993102543763   14    3   14    3
 0.06345449639314807   14    4    2    1
 0.02446915012358678   14    4    3    2
 0.05736902347377022   14    4    6    5
 0.06526417224283429   14    4    7    4
 -0.03616938489001327   14    4    8    1
 0.05347112005276974   14    4    8    3
 0.009067102791944236   14    4    9    1
 0.04730514492816619   14    4    9    3
 -0.06560045213449341   14    4   10    7
 -0.05133912639088727   14    4   11    6
 -0.04252200711454818   14    4   12    2
 -0.01260860334893757   14    4   12    8
 -0.03554068716813157   14    4   12    9
 0.04430137911759966   14    4   13    5
 -0.05145155834651965   14    4   13   11
 0.05800187497144033   14    4   14    4
 0.003947574384531945   14    5    6    4
 0.003947574384531964   14    5    7    5
 -0.007130662871802982   14    5   10    6
 -0.00713066287180299   14    5   11    7
 0.006850247926920442   14    5   13    4
 -0.002793615351181368   14    5   13   10
 0.00685024792692043   14    5   14    5
 0.003526454635860601   14    6    5    4
 0.004181725100869137   14    6    7    6
 -0.007573553924610921   14    6   10    5
 -0.007573553924610922   14    6   11    4
 0.003112703115065626   14    6   11   10
 0.008001597317213055   14    6   13    7