 &FCI NORB=  26,NELEC=10,MS2=0,
  ORBSYM=1,1,1,1,1,1,1,1,1,1,1,1,1,1,1,1,1,1,1,1,1,1,1,1,1,1
  ISYM=1,
 &END
 0.42979299938392    1    1    1    1
 0.2648476098727011    2    1    2    1
 0.4306241845577321    2    2    1    1
 0.4322420164026859    2    2    2    2
 -0.0084119930564793    3    1    1    1
 -0.001317316344919157    3    1    2    2
 0.06753333715416364    3    1    3    1
 0.02935432764030976    3    2    2    1
 0.06309683266681686    3    2    3    2
 0.4038437497606513    3    3    1    1
 0.4038987168096327    3    3    2    2
 -0.009403422691881481    3    3    3    1
 0.4057902805750684    3    3    3    3
 0.06720535018912599    4    1    4    1
 0.06498289859770535    4    2    4    2
 0.0008003166411337323    4    3    4    1
 0.01620511943571809    4    3    4    3
 0.4054454934659295    4    4    1    1
 0.4062719864649485    4    4    2    2
 -0.007174474253104786    4    4    3    1
 0.3731736615190898    4    4    3    3
 0.4070397646011553    4    4    4    4
 0.06720535018912599    5    1    5    1
 0.06498289859770534    5    2    5    2
 0.0008003166411337323    5    3    5    1
 0.01620511943571809    5    3    5    3
 0.01636071773793124    5    4    5    4
 0.4054454934659295    5    5    1    1
 0.4062719864649486    5    5    2    2
 -0.007174474253104786    5    5    3    1
 0.3731736615190898    5    5    3    3
 0.3743183291252928    5    5    4    4
 0.4070397646011553    5    5    5    5
 0.06499861875254671    6    1    5    2
 0.065032741954517    6    1    6    1
 0.06781993649342261    6    2    5    1
 0.001944870668697336    6    2    5    3
 0.06853162196185177    6    2    6    2
 0.003370527411806704    6    3    5    2
 0.002840492514398731    6    3    6    1
 0.0156868117166628    6    3    6    3
 0.01642049692605071    6    4    6    4
 0.2433952592465968    6    5    2    1
 0.02550133005332823    6    5    3    2
 0.2476567579764417    6    5    6    5
 0.407508891537465    6    6    1    1
 0.4085354277951296    6    6    2    2
 -0.00565525049620795    6    6    3    1
 0.3745340991744426    6    6    3    3
 0.3760602889084859    6    6    4    4
 0.409145155297607    6    6    5    5
 0.4113436899083572    6    6    6    6
 0.06499861875254674    7    1    4    2
 0.06503274195451703    7    1    7    1
 0.06781993649342262    7    2    4    1
 0.001944870668697337    7    2    4    3
 0.06853162196185182    7    2    7    2
 0.003370527411806706    7    3    4    2
 0.002840492514398734    7    3    7    1
 0.0156868117166628    7    3    7    3
 0.2433952592465969    7    4    2    1
 0.02550133005332824    7    4    3    2
 0.2148157641243404    7    4    6    5
 0.2476567579764419    7    4    7    4
 0.01642049692605071    7    5    6    4
 0.01642049692605071    7    5    7    5
 0.01654243319456063    7    6    5    4
 0.01673453870535703    7    6    7    6
 0.4075088915374651    7    7    1    1
 0.4085354277951299    7    7    2    2
 -0.005655250496207947    7    7    3    1
 0.3745340991744427    7    7    3    3
 0.4091451552976073    7    7    4    4
 0.3760602889084861    7    7    5    5
 0.3778746124976434    7    7    6    6
 0.4113436899083576    7    7    7    7
 -0.003682560031063727    8    1    2    1
 0.06216654075119522    8    1    3    2
 -0.004645648492351797    8    1    6    5
 -0.0046456484923518    8    1    7    4
 0.06552589824778228    8    1    8    1
 -0.01590400332700338    8    2    1    1
 -0.008890107984399636    8    2    2    2
 0.06853917081467208    8    2    3    1
 -0.0128673053246547    8    2    3    3
 -0.01459508469877539    8    2    4    4
 -0.01459508469877539    8    2    5    5
 -0.01323619933993934    8    2    6    6
 -0.01323619933993934    8    2    7    7
 0.07046323964106754    8    2    8    2
 0.2368474152457082    8    3    2    1
 0.02580319306485207    8    3    3    2
 0.2088875607303437    8    3    6    5
 0.2088875607303438    8    3    7    4
 -0.004131639672518864    8    3    8    1
 0.2346004692109847    8    3    8    3
 -0.002848221572826738    8    4    4    2
 -0.003399631602432212    8    4    7    1
 0.01598409152346962    8    4    7    3
 0.01693339408176906    8    4    8    4
 -0.002848221572826738    8    5    5    2
 -0.003399631602432211    8    5    6    1
 0.01598409152346962    8    5    6    3
 0.01693339408176906    8    5    8    5
 -0.004076712818615361    8    6    5    1
 0.01651941227245955    8    6    5    3
 -0.002996255779490549    8    6    6    2
 0.0173826269210819    8    6    8    6
 -0.004076712818615362    8    7    4    1
 0.01651941227245956    8    7    4    3
 -0.002996255779490551    8    7    7    2
 0.01738262692108191    8    7    8    7
 0.4167246127807772    8    8    1    1
 0.4167832834304975    8    8    2    2
 -0.01264383500520927    8    8    3    1
 0.4154783860825986    8    8    3    3
 0.3840435771512005    8    8    4    4
 0.3840435771512005    8    8    5    5
 0.3856467163585584    8    8    6    6
 0.3856467163585586    8    8    7    7
 -0.01757750512103889    8    8    8    2
 0.4286683043814825    8    8    8    8
 -0.03053728467251789    9    1    1    1
 -0.02910217079859755    9    1    2    2
 0.0215299851010039    9    1    3    1
 -0.02069821288915196    9    1    3    3
 -0.02654448031446589    9    1    4    4
 -0.02654448031446589    9    1    5    5
 -0.02688265333179402    9    1    6    6
 -0.02688265333179406    9    1    7    7
 0.02544986242053118    9    1    8    2
 -0.02908808460020001    9    1    8    8
 0.02821367287761158    9    1    9    1
 -0.03308624729579755    9    2    2    1
 0.02281277425923956    9    2    3    2
 -0.03022911925355523    9    2    6    5
 -0.03022911925355524    9    2    7    4
 0.02865187556253027    9    2    8    1
 -0.02875374267514256    9    2    8    3
 0.02598923625595785    9    2    9    2
 0.07745321739229373    9    3    1    1
 0.07959960747967146    9    3    2    2
 0.006880282950574712    9    3    3    1
 0.06582727480341201    9    3    3    3
 0.06484700060005347    9    3    4    4
 0.06484700060005348    9    3    5    5
 0.06645101594492728    9    3    6    6
 0.06645101594492735    9    3    7    7
 0.001297290015525097    9    3    8    2
 0.07855820476311035    9    3    8    8
 -0.02680368339164654    9    3    9    1
 0.06530595438648168    9    3    9    3
 -0.004570868805246095    9    4    4    1
 0.004044589686169308    9    4    4    3
 -0.00459123718589396    9    4    7    2
 0.005561767389478292    9    4    8    7
 0.01042929211088439    9    4    9    4
 -0.004570868805246095    9    5    5    1
 0.004044589686169309    9    5    5    3
 -0.004591237185893952    9    5    6    2
 0.005561767389478286    9    5    8    6
 0.01042929211088439    9    5    9    5
 -0.006279515354593568    9    6    5    2
 -0.006448141638961034    9    6    6    1
 0.005093089569852561    9    6    6    3
 0.006307960090665486    9    6    8    5
 0.0092774544115986    9    6    9    6
 -0.006279515354593583    9    7    4    2
 -0.006448141638961056    9    7    7    1
 0.005093089569852574    9    7    7    3
 0.006307960090665496    9    7    8    4
 0.00927745441159861    9    7    9    7
 0.1111188078627847    9    8    2    1
 0.002607115142303067    9    8    3    2
 0.09571724385501636    9    8    6    5
 0.0957172438550164    9    8    7    4
 -0.01269590190148717    9    8    8    1
 0.1057523191584675    9    8    8    3
 -0.02748599317523509    9    8    9    2
 0.07751147742995664    9    8    9    8
 0.3915488212277178    9    9    1    1
 0.3870974094142526    9    9    2    2
 -0.05004792091051984    9    9    3    1
 0.3921117079715954    9    9    3    3
 0.3663985095259686    9    9    4    4
 0.3663985095259686    9    9    5    5
 0.3665735016759726    9    9    6    6
 0.3665735016759728    9    9    7    7
 -0.05343033875244365    9    9    8    2
 0.4003660078540683    9    9    8    8
 -0.03012594527282646    9    9    9    1
 0.05393471530719919    9    9    9    3
 0.4245032043583111    9    9    9    9
 -0.02257199535987198   10    1    4    1
 -0.001499239610932768   10    1    4    3
 -0.02314226590336225   10    1    7    2
 0.001129749330128239   10    1    8    7
 0.008112046000554023   10    1    9    4
 0.02086093730163372   10    1   10    1
 -0.02429782829141189   10    2    4    2
 -0.02428623887067614   10    2    7    1
 -0.001384903542420868   10    2    7    3
 0.001451888264473745   10    2    8    4
 0.007225607077931529   10    2    9    7
 0.02096551830889822   10    2   10    2
 -0.003108637310453204   10    3    4    1
 -0.003486747454246123   10    3    4    3
 -0.003228015344953267   10    3    7    2
 -0.004019809492601759   10    3    8    7
 -0.007243108743170417   10    3    9    4
 0.0005680729408858761   10    3   10    1
 0.007939288428940247   10    3   10    3
 -0.0920581972506362   10    4    1    1
 -0.09354012907703974   10    4    2    2
 -0.002919316325149395   10    4    3    1
 -0.07416877415148425   10    4    3    3
 -0.08687825521081916   10    4    4    4
 -0.07791715888162229   10    4    5    5
 -0.07923191475890894   10    4    6    6
 -0.08852431092136757   10    4    7    7
 0.002134786207623012   10    4    8    2
 -0.08220165812620016   10    4    8    8
 0.02152634388441513   10    4    9    1
 -0.04915317610419512   10    4    9    3
 -0.07155167690966251   10    4    9    9
 0.06904818895524968   10    4   10    4
 -0.004480548164598442   10    5    5    4
 -0.004646198081229263   10    5    7    6
 0.007599753024989758   10    5   10    5
 -0.004798584669298256   10    6    6    4
 -0.004798584669298263   10    6    7    5
 0.007564979053495487   10    6   10    6
 -0.09317522608266339   10    7    2    1
 -0.007360079536276335   10    7    3    2
 -0.07885353732314054   10    7    6    5
 -0.08845070666173716   10    7    7    4
 0.005074594675006537   10    7    8    1
 -0.07738924484712889   10    7    8    3
 0.01999859142543109   10    7    9    2
 -0.05744458816493348   10    7    9    8
 0.07038931015161939   10    7   10    7
 0.001990906237729296   10    8    4    2
 0.002145267147881142   10    8    7    1
 -0.004794019385342807   10    8    7    3
 -0.005382770559865841   10    8    8    4
 -0.00730818727666219   10    8    9    7
 -0.0007834026816860835   10    8   10    2
 0.007740415880049785   10    8   10    8
 0.02104975304779853   10    9    4    1
 -0.0115408081642675   10    9    4    3
 0.02032501440967966   10    9    7    2
 -0.01294824091128395   10    9    8    7
 -0.003102736526063507   10    9    9    4
 -0.004606093838347067   10    9   10    1
 0.0008902396924784206   10    9   10    3
 0.01936081580635587   10    9   10    9
 0.3680391592270004   10   10    1    1
 0.3685541902434999   10   10    2    2
 -0.007368423790994665   10   10    3    1
 0.3442385152368332   10   10    3    3
 0.3690843362183819   10   10    4    4
 0.3445210405090174   10   10    5    5
 0.3459541391300989   10   10    6    6
 0.3707286003210509   10   10    7    7
 -0.01327890585466576   10   10    8    2
 0.3531309744032158   10   10    8    8
 -0.02265771092459762   10   10    9    1
 0.05661444888946956   10   10    9    3
 0.347224221817553   10   10    9    9
 -0.07576472564946705   10   10   10    4
 0.3514585944523897   10   10   10   10
 -0.02257199535987198   11    1    5    1
 -0.001499239610932769   11    1    5    3
 -0.02314226590336223   11    1    6    2
 0.001129749330128237   11    1    8    6
 0.008112046000554025   11    1    9    5
 0.02086093730163373   11    1   11    1
 -0.02429782829141189   11    2    5    2
 -0.02428623887067612   11    2    6    1
 -0.001384903542420868   11    2    6    3
 0.001451888264473744   11    2    8    5
 0.007225607077931523   11    2    9    6
 0.02096551830889822   11    2   11    2
 -0.003108637310453206   11    3    5    1
 -0.003486747454246123   11    3    5    3
 -0.003228015344953267   11    3    6    2
 -0.004019809492601753   11    3    8    6
 -0.007243108743170417   11    3    9    5
 0.0005680729408858763   11    3   11    1
 0.007939288428940249   11    3   11    3
 -0.004480548164598442   11    4    5    4
 -0.004646198081229263   11    4    7    6
 0.007599753024989758   11    4   10    5
 0.007599753024989758   11    4   11    4
 -0.0920581972506362   11    5    1    1
 -0.09354012907703972   11    5    2    2
 -0.002919316325149397   11    5    3    1
 -0.07416877415148428   11    5    3    3
 -0.07791715888162225   11    5    4    4
 -0.0868782552108192   11    5    5    5
 -0.08852431092136746   11    5    6    6
 -0.07923191475890901   11    5    7    7
 0.002134786207623011   11    5    8    2
 -0.08220165812620016   11    5    8    8
 0.02152634388441513   11    5    9    1
 -0.04915317610419511   11    5    9    3
 -0.07155167690966248   11    5    9    9
 0.05384868290527012   11    5   10    4
 -0.06976242357235252   11    5   10   10
 0.0690481889552497   11    5   11    5
 -0.0931752260826632   11    6    2    1
 -0.007360079536276316   11    6    3    2
 -0.08845070666173692   11    6    6    5
 -0.0788535373231404   11    6    7    4
 0.005074594675006532   11    6    8    1
 -0.07738924484712874   11    6    8    3
 0.01999859142543107   11    6    9    2
 -0.05744458816493342   11    6    9    8
 0.05525935204462833   11    6   10    7
 0.0703893101516193   11    6   11    6
 -0.004798584669298267   11    7    6    4
 -0.004798584669298272   11    7    7    5
 0.007564979053495489   11    7   10    6
 0.007564979053495492   11    7   11    7
 0.001990906237729294   11    8    5    2
 0.002145267147881139   11    8    6    1
 -0.004794019385342802   11    8    6    3
 -0.005382770559865841   11    8    8    5
 -0.007308187276662186   11    8    9    6
 -0.0007834026816860832   11    8   11    2
 0.007740415880049785   11    8   11    8
 0.02104975304779853   11    9    5    1
 -0.0115408081642675   11    9    5    3
 0.02032501440967966   11    9    6    2
 -0.01294824091128395   11    9    8    6
 -0.003102736526063509   11    9    9    5
 -0.004606093838347064   11    9   11    1
 0.0008902396924784206   11    9   11    3
 0.01936081580635587   11    9   11    9
 0.01228164785468225   11   10    5    4
 0.01238723059547588   11   10    7    6
 -0.003001151038557261   11   10   10    5
 -0.003001151038557261   11   10   11    4
 0.01239769862886737   11   10   11   10
 0.3680391592270004   11   11    1    1
 0.3685541902434999   11   11    2    2
 -0.007368423790994663   11   11    3    1
 0.3442385152368331   11   11    3    3
 0.3445210405090174   11   11    4    4
 0.3690843362183819   11   11    5    5
 0.3707286003210507   11   11    6    6
 0.3459541391300991   11   11    7    7
 -0.01327890585466575   11   11    8    2
 0.3531309744032157   11   11    8    8
 -0.02265771092459762   11   11    9    1
 0.05661444888946957   11   11    9    3
 0.347224221817553   11   11    9    9
 -0.06976242357235263   11   11   10    4
 0.3266631971946549   11   11   10   10
 -0.07576472564946707   11   11   11    5
 0.3514585944523897   11   11   11   11
 0.02269546635869939   12    1    5    2
 0.02269899691723581   12    1    6    1
 0.0008201128258716607   12    1    6    3
 -0.001896956814286671   12    1    8    5
 -0.007524002269624567   12    1    9    6
 -0.02049379433713815   12    1   11    2
 0.001148244800564147   12    1   11    8
 0.02009015332594464   12    1   12    1
 0.02219775189266118   12    2    5    1
 0.001096115709608062   12    2    5    3
 0.02271975227535255   12    2    6    2
 -0.001442484452884986   12    2    8    6
 -0.007693512797460603   12    2    9    5
 -0.02072039803310317   12    2   11    1
 -0.001031683230754645   12    2   11    3
 0.004951232888605803   12    2   11    9
 0.02065051876286605   12    2   12    2
 0.001010263552659688   12    3    5    2
 0.0008851749308461271   12    3    6    1
 0.004089656357823845   12    3    6    3
 0.004317278909287125   12    3    8    5
 0.006254072565891894   12    3    9    6
 -0.001212942616521871   12    3   11    2
 -0.007242802965583405   12    3   11    8
 0.0008122931518235071   12    3   12    1
 0.007019427645680516   12    3   12    3
 0.004382155293223432   12    4    6    4
 0.004382155293223438   12    4    7    5
 -0.007517297665281036   12    4   10    6
 -0.00751729766528104   12    4   11    7
 0.007483091947793558   12    4   12    4
 0.08710419743707538   12    5    2    1
 0.005901226599098986   12    5    3    2
 0.08220612354679847   12    5    6    5
 0.0734418129603516   12    5    7    4
 -0.005827673670381592   12    5    8    1
 0.07217969548600925   12    5    8    3
 -0.01968292497285192   12    5    9    2
 0.05540135051142754   12    5    9    8
 -0.05359715441594316   12    5   10    7
 -0.06863174974650524   12    5   11    6
 0.06705146242830665   12    5   12    5
 0.09179879353983279   12    6    1    1
 0.09309528188722752   12    6    2    2
 0.001430378119650866   12    6    3    1
 0.07450146482054479   12    6    3    3
 0.0777174409827794   12    6    4    4
 0.08634322466764326   12    6    5    5
 0.08791466466319085   12    6    6    6
 0.078975759426115   12    6    7    7
 -0.003504909871505673   12    6    8    2
 0.08232356357606624   12    6    8    8
 -0.02137359919166095   12    6    9    1
 0.04829672246272519   12    6    9    3
 0.07337620130313739   12    6    9    9
 -0.05370774061660873   12    6   10    4
 0.06986999035505086   12    6   10   10
 -0.06894435858708793   12    6   11    5
 0.07574611158623569   12    6   11   11
 0.06895226185080161   12    6   12    6
 0.004312891842431913   12    7    5    4
 0.004469452618537981   12    7    7    6
 -0.007618308985239588   12    7   10    5
 -0.007618308985239588   12    7   11    4
 0.00293806061559244   12    7   11   10
 0.007653007918312369   12    7   12    7
 -0.002394470684186317   12    8    5    1
 0.004196403565328236   12    8    5    3
 -0.002247351373098873   12    8    6    2
 0.005046972155835157   12    8    8    6
 0.007670558676151864   12    8    9    5
 0.001488562745446535   12    8   11    1
 -0.007553072669079042   12    8   11    3
 -0.003800969900210174   12    8   11    9
 -0.001088455670743684   12    8   12    2
 0.007872180125070958   12    8   12    8
 -0.0171550580822905   12    9    5    2
 -0.01753549363563017   12    9    6    1
 0.009626187179398202   12    9    6    3
 0.01165358952176608   12    9    8    5
 0.005575061821592564   12    9    9    6
 0.005930535816448403   12    9   11    2
 -0.004489525980517346   12    9   11    8
 -0.005805841754603571   12    9   12    1
 0.002943717356447964   12    9   12    3
 0.01467744813811132   12    9   12    9
 -0.01216370293655297   12   10    6    4
 -0.01216370293655297   12   10    7    5
 0.003236354441769253   12   10   10    6
 0.003236354441769263   12   10   11    7
 -0.002907180514840607   12   10   12    4
 0.01213668215159943   12   10   12   10
 -0.2058977064587796   12   11    2    1
 -0.02291169550996719   12   11    3    2
 -0.2094636875995843   12   11    6    5
 -0.1851362817264784   12   11    7    4
 0.002704209773638087   12   11    8    1
 -0.1797083880195789   12   11    8    3
 0.02640493156951179   12   11    9    2
 -0.08450789695759509   12   11    9    8
 0.06962612516279594   12   11   10    7
 0.07609883404633429   12   11   11    6
 -0.07074047348299929   12   11   12    5
 0.1919789825748234   12   11   12   11
 0.3663401594517703   12   12    1    1
 0.3670257178366255   12   12    2    2
 -0.006073692984860828   12   12    3    1
 0.3419765743661592   12   12    3    3
 0.3431275016925269   12   12    4    4
 0.3678628054412671   12   12    5    5
 0.3695759863782628   12   12    6    6
 0.3446136306873191   12   12    7    7
 -0.01212950816729784   12   12    8    2
 0.3512182736303158   12   12    8    8
 -0.02309002242345943   12   12    9    1
 0.05738427643508578   12   12    9    3
 0.3434214722850078   12   12    9    9
 -0.06920986507126811   12   12   10    4
 0.3252890897530744   12   12   10   10
 -0.07487070713772495   12   12   11    5
 0.3502728559677179   12   12   11   11
 0.07469948660835317   12   12   12    6
 0.3493625031649094   12   12   12   12
 0.02269546635869935   13    1    4    2
 0.02269899691723578   13    1    7    1
 0.0008201128258716577   13    1    7    3
 -0.001896956814286671   13    1    8    4
 -0.007524002269624571   13    1    9    7
 -0.02049379433713814   13    1   10    2
 0.001148244800564146   13    1   10    8
 0.02009015332594461   13    1   13    1
 0.02219775189266113   13    2    4    1
 0.001096115709608059   13    2    4    3
 0.02271975227535252   13    2    7    2
 -0.001442484452884987   13    2    8    7
 -0.007693512797460601   13    2    9    4
 -0.02072039803310316   13    2   10    1
 -0.001031683230754641   13    2   10    3
 0.004951232888605787   13    2   10    9
 0.02065051876286603   13    2   13    2
 0.001010263552659682   13    3    4    2
 0.0008851749308461223   13    3    7    1
 0.004089656357823839   13    3    7    3
 0.004317278909287113   13    3    8    4
 0.006254072565891894   13    3    9    7
 -0.001212942616521869   13    3   10    2
 -0.007242802965583404   13    3   10    8
 0.0008122931518235047   13    3   13    1
 0.007019427645680514   13    3   13    3
 0.0871041974370752   13    4    2    1
 0.005901226599098965   13    4    3    2
 0.07344181296035143   13    4    6    5
 0.08220612354679836   13    4    7    4
 -0.005827673670381593   13    4    8    1
 0.0721796954860091   13    4    8    3
 -0.01968292497285189   13    4    9    2
 0.05540135051142749   13    4    9    8
 -0.06863174974650521   13    4   10    7
 -0.05359715441594306   13    4   11    6
 0.05208527853271942   13    4   12    5
 -0.06492611245331791   13    4   12   11
 0.06705146242830651   13    4   13    4
 0.00438215529322342   13    5    6    4
 0.004382155293223427   13    5    7    5
 -0.007517297665281034   13    5   10    6
 -0.007517297665281037   13    5   11    7
 0.007483091947793556   13    5   12    4
 -0.0029071805148406   13    5   12   10
 0.007483091947793555   13    5   13    5
 0.004312891842431891   13    6    5    4
 0.004469452618537958   13    6    7    6
 -0.007618308985239585   13    6   10    5
 -0.007618308985239585   13    6   11    4
 0.002938060615592421   13    6   11   10
 0.007653007918312365   13    6   12    7
 0.007653007918312362   13    6   13    6
 0.09179879353983282   13    7    1    1
 0.09309528188722752   13    7    2    2
 0.001430378119650861   13    7    3    1
 0.0745014648205448   13    7    3    3
 0.08634322466764324   13    7    4    4
 0.07771744098277941   13    7    5    5
 0.07897575942611491   13    7    6    6
 0.08791466466319099   13    7    7    7
 -0.003504909871505678   13    7    8    2
 0.08232356357606627   13    7    8    8
 -0.02137359919166096   13    7    9    1
 0.0482967224627252   13    7    9    3
 0.07337620130313743   13    7    9    9
 -0.06894435858708792   13    7   10    4
 0.07574611158623576   13    7   10   10
 -0.05370774061660873   13    7   11    5
 0.0698699903550509   13    7   11   11
 0.05364624601417688   13    7   12    6
 0.06921045842034459   13    7   12   12
 0.06895226185080161   13    7   13    7
 -0.002394470684186319   13    8    4    1
 0.004196403565328224   13    8    4    3
 -0.002247351373098877   13    8    7    2
 0.005046972155835151   13    8    8    7
 0.00767055867615186   13    8    9    4
 0.001488562745446536   13    8   10    1
 -0.007553072669079041   13    8   10    3
 -0.003800969900210167   13    8   10    9
 -0.001088455670743684   13    8   13    2
 0.007872180125070953   13    8   13    8
 -0.01715505808229051   13    9    4    2
 -0.01753549363563018   13    9    7    1
 0.009626187179398204   13    9    7    3
 0.01165358952176608   13    9    8    4
 0.005575061821592574   13    9    9    7
 0.005930535816448403   13    9   10    2
 -0.004489525980517344   13    9   10    8
 -0.00580584175460356   13    9   13    1
 0.002943717356447955   13    9   13    3
 0.01467744813811133   13    9   13    9
 -0.2058977064587796   13   10    2    1
 -0.02291169550996719   13   10    3    2
 -0.1851362817264783   13   10    6    5
 -0.2094636875995844   13   10    7    4
 0.002704209773638086   13   10    8    1
 -0.1797083880195789   13   10    8    3
 0.02640493156951177   13   10    9    2
 -0.08450789695759507   13   10    9    8
 0.07609883404633443   13   10   10    7
 0.06962612516279579   13   10   11    6
 -0.06492611245331807   13   10   12    5
 0.1677056182716246   13   10   12   11
 -0.07074047348299911   13   10   13    4
 0.1919789825748236   13   10   13   10
 -0.01216370293655297   13   11    6    4
 -0.01216370293655297   13   11    7    5
 0.003236354441769248   13   11   10    6
 0.003236354441769258   13   11   11    7
 -0.002907180514840603   13   11   12    4
 0.01213668215159943   13   11   12   10
 -0.002907180514840595   13   11   13    5
 0.01213668215159944   13   11   13   11
 0.01236765187437003   13   12    5    4
 0.0124811778454719   13   12    7    6
 -0.002830421033228382   13   12   10    5
 -0.002830421033228382   13   12   11    4
 0.01249188310732176   13   12   11   10
 0.002744514094004314   13   12   12    7
 0.002744514094004293   13   12   13    6
 0.01263120388315566   13   12   13   12
 0.3663401594517705   13   13    1    1
 0.3670257178366256   13   13    2    2
 -0.006073692984860839   13   13    3    1
 0.3419765743661595   13   13    3    3
 0.3678628054412672   13   13    4    4
 0.343127501692527   13   13    5    5
 0.344613630687319   13   13    6    6
 0.3695759863782631   13   13    7    7
 -0.01212950816729784   13   13    8    2
 0.3512182736303159   13   13    8    8
 -0.0230900224234594   13   13    9    1
 0.05738427643508573   13   13    9    3
 0.343421472285008   13   13    9    9
 -0.07487070713772484   13   13   10    4
 0.3502728559677182   13   13   10   10
 -0.06920986507126807   13   13   11    5
 0.3252890897530745   13   13   11   11
 0.06921045842034448   13   13   12    6
 0.3241000953985982   13   13   12   12
 0.07469948660835313   13   13   13    7
 0.3493625031649098   13   13   13   13
 0.05128210659155464   14    1    2    1
 0.01944023439572982   14    1    3    2
 0.04392281008650435   14    1    6    5
 0.04392281008650437   14    1    7    4
 0.0134452733857734   14    1    8    1
 0.04192212602689489   14    1    8    3
 0.001742593510059363   14    1    9    2
 0.03032048070264241   14    1    9    8
 -0.03553261768568585   14    1   10    7
 -0.03553261768568582   14    1   11    6
 0.0344573468471218   14    1   12    5
 -0.03832829862685616   14    1   12   11
 0.03445734684712177   14    1   13    4
 -0.03832829862685613   14    1   13   10
 0.03159239151170187   14    1   14    1
 0.05780708658338273   14    2    1    1
 0.06009115779410464   14    2    2    2
 0.0168068391508466   14    2    3    1
 0.04883751397436938   14    2    3    3
 0.05038018255834963   14    2    4    4
 0.05038018255834963   14    2    5    5
 0.05140243203137553   14    2    6    6
 0.05140243203137559   14    2    7    7
 0.01487675331257702   14    2    8    2
 0.05086358140232998   14    2    8    8
 0.0006641333587056749   14    2    9    1
 0.02908766086151034   14    2    9    3
 0.04029856517570343   14    2    9    9
 -0.03718420441163403   14    2   10    4
 0.04524048696454652   14    2   10   10
 -0.03718420441163404   14    2   11    5
 0.04524048696454654   14    2   11   11
 0.03716977287697796   14    2   12    6
 0.04439264720569386   14    2   12   12
 0.03716977287697795   14    2   13    7
 0.04439264720569381   14    2   13   13
 0.03542048929509885   14    2   14    2
 0.06002393698622659   14    3    2    1
 0.00977669454323123   14    3    3    2
 0.05020732032523197   14    3    6    5
 0.050207320325232   14    3    7    4
 0.002075528524352032   14    3    8    1
 0.05482266474917025   14    3    8    3
 -0.00237869315878362   14    3    9    2
 0.04351907198651197   14    3    9    8
 -0.03850125061015765   14    3   10    7
 -0.03850125061015763   14    3   11    6
 0.03740453854575482   14    3   12    5
 -0.04411105496840607   14    3   12   11
 0.03740453854575478   14    3   13    4
 -0.04411105496840604   14    3   13   10
 0.0334112450090959   14    3   14    1
 0.04343716714080773   14    3   14    3
 0.006833707274899528   14    4    4    2
 0.006732141804279007   14    4    7    1
 0.003293332624077602   14    4    7    3
 0.002442015776615228   14    4    8    4
 -0.0001908122330653567   14    4    9    7
 -0.01279231510379181   14    4   10    2
 -0.004884843042075454   14    4   10    8
 0.01246687420795804   14    4   13    1
 0.005694857461676552   14    4   13    3
 0.001101291849522129   14    4   13    9
 0.01302287444515176   14    4   14    4
 0.006833707274899528   14    5    5    2
 0.006732141804278995   14    5    6    1
 0.003293332624077598   14    5    6    3
 0.002442015776615228   14    5    8    5
 -0.000190812233065359   14    5    9    6
 -0.01279231510379181   14    5   11    2
 -0.004884843042075454   14    5   11    8
 0.01246687420795804   14    5   12    1
 0.005694857461676555   14    5   12    3
 0.001101291849522128   14    5   12    9
 0.01302287444515176   14    5   14    5
 0.006134785593227118   14    6    5    1
 0.003538030545645161   14    6    5    3
 0.006571374912072042   14    6    6    2
 0.002752535468194113   14    6    8    6
 -0.0005980213081391434   14    6    9    5
 -0.01289343180313145   14    6   11    1
 -0.005512647713976548   14    6   11    3
 -0.001896377466767154   14    6   11    9
 0.01316826336678568   14    6   12    2
 0.004852604454486899   14    6   12    8
 0.0135592915055758   14    6   14    6
 0.006134785593227146   14    7    4    1
 0.003538030545645168   14    7    4    3
 0.006571374912072083   14    7    7    2
 0.002752535468194124   14    7    8    7
 -0.0005980213081391418   14    7    9    4