 &FCI NORB=  26,NELEC=10,MS2=0,
  ORBSYM=1,1,1,1,1,1,1,1,1,1,1,1,1,1,1,1,1,1,1,1,1,1,1,1,1,1
  ISYM=1,
 &END
 0.451235915413878    1    1    1    1
 0.2413495202028988    2    1    2    1
 0.4502982329520222    2    2    1    1
 0.4543466539403643    2    2    2    2
 0.01660854877334233    3    1    1    1
 -0.002009816392373624    3    1    2    2
 0.07260648750510217    3    1    3    1
 -0.05362079704366468    3    2    2    1
 0.06755729360091825    3    2    3    2
 0.4306983291631039    3    3    1    1
 0.4285883811932724    3    3    2    2
 0.01502505307131776    3    3    3    1
 0.4374084438848007    3    3    3    3
 0.06753764567802779    4    1    4    1
 0.06324051623382174    4    2    4    2
 -0.001089385152690043    4    3    4    1
 0.01716910641283869    4    3    4    3
 0.4242384363760297    4    4    1    1
 0.424309378817311    4    4    2    2
 0.01198548177749034    4    4    3    1
 0.3966432807589914    4    4    3    3
 0.4238183128144197    4    4    4    4
 0.06753764567802778    5    1    5    1
 0.06324051623382175    5    2    5    2
 -0.001089385152690043    5    3    5    1
 0.01716910641283869    5    3    5    3
 0.01618989355098926    5    4    5    4
 0.4242384363760297    5    5    1    1
 0.4243093788173111    5    5    2    2
 0.01198548177749033    5    5    3    1
 0.3966432807589912    5    5    3    3
 0.3914385257124413    5    5    4    4
 0.4238183128144197    5    5    5    5
 -0.06327826477676052    6    1    5    2
 0.06339662812234644    6    1    6    1
 -0.06887286986221142    6    2    5    1
 0.004352438010029562    6    2    5    3
 0.07094705733291233    6    2    6    2
 0.007746780754602295    6    3    5    2
 -0.006663623997311732    6    3    6    1
 0.01582760685537153    6    3    6    3
 0.016307359531949    6    4    6    4
 -0.222245821411768    6    5    2    1
 0.04636284302674942    6    5    3    2
 0.2284286044698748    6    5    6    5
 0.4289656450254864    6    6    1    1
 0.430633980384406    6    6    2    2
 0.006776138633078794    6    6    3    1
 0.3995554600568761    6    6    3    3
 0.3955545226674029    6    6    4    4
 0.4288913042382883    6    6    5    5
 0.4348994891514835    6    6    6    6
 -0.06327826477676052    7    1    4    2
 0.06339662812234644    7    1    7    1
 -0.0688728698622114    7    2    4    1
 0.004352438010029562    7    2    4    3
 0.07094705733291232    7    2    7    2
 0.007746780754602296    7    3    4    2
 -0.006663623997311731    7    3    7    1
 0.01582760685537152    7    3    7    3
 -0.222245821411768    7    4    2    1
 0.04636284302674941    7    4    3    2
 0.1958138854059767    7    4    6    5
 0.2284286044698747    7    4    7    4
 0.016307359531949    7    5    6    4
 0.016307359531949    7    5    7    5
 0.01666839078544271    7    6    5    4
 0.01726660704570777    7    6    7    6
 0.4289656450254863    7    7    1    1
 0.4306339803844058    7    7    2    2
 0.006776138633078794    7    7    3    1
 0.399555460056876    7    7    3    3
 0.4288913042382882    7    7    4    4
 0.3955545226674027    7    7    5    5
 0.4003662750600679    7    7    6    6
 0.4348994891514834    7    7    7    7
 -0.01513623943835482    8    1    2    1
 -0.05661142516349966    8    1    3    2
 0.01663533210826017    8    1    6    5
 0.01663533210826016    8    1    7    4
 0.06572368613509162    8    1    8    1
 -0.02883849333388877    8    2    1    1
 -0.01166689756215598    8    2    2    2
 -0.0703756552044723    8    2    3    1
 -0.01834982499990716    8    2    3    3
 -0.02501399905555087    8    2    4    4
 -0.02501399905555087    8    2    5    5
 -0.0210388511902854    8    2    6    6
 -0.0210388511902854    8    2    7    7
 0.07221108956316159    8    2    8    2
 -0.2133794227657655    8    3    2    1
 0.04721135556868809    8    3    3    2
 0.1877408993300324    8    3    6    5
 0.1877408993300324    8    3    7    4
 0.01453285839958703    8    3    8    1
 0.2108613407282972    8    3    8    3
 -0.006599699901035617    8    4    4    2
 0.00776947288981716    8    4    7    1
 0.01510960164668882    8    4    7    3
 0.01777952807890102    8    4    8    4
 -0.006599699901035617    8    5    5    2
 0.007769472889817161    8    5    6    1
 0.01510960164668882    8    5    6    3
 0.01777952807890102    8    5    8    5
 0.009226321452362071    8    6    5    1
 0.01660313188787821    8    6    5    3
 -0.006565717653835673    8    6    6    2
 0.01869130684977698    8    6    8    6
 0.009226321452362071    8    7    4    1
 0.01660313188787821    8    7    4    3
 -0.006565717653835669    8    7    7    2
 0.01869130684977697    8    7    8    7
 0.4462476464708983    8    8    1    1
 0.4437590631941052    8    8    2    2
 0.02159167905914834    8    8    3    1
 0.4464062318646806    8    8    3    3
 0.409875699495152    8    8    4    4
 0.409875699495152    8    8    5    5
 0.4137997354954863    8    8    6    6
 0.4137997354954862    8    8    7    7
 -0.02960491629565726    8    8    8    2
 0.4655809486516788    8    8    8    8
 -0.02158569772734741    9    1    4    1
 0.003839708845443316    9    1    4    3
 0.02350973261543961    9    1    7    2
 -0.002125116489114286    9    1    8    7
 0.02133205502514013    9    1    9    1
 -0.02601705695613579    9    2    4    2
 0.02603418079919073    9    2    7    1
 -0.003621022961617971    9    2    7    3
 0.002936130713279194    9    2    8    4
 0.02184448200420849    9    2    9    2
 0.007756248232539373    9    3    4    1
 -0.002833612307990757    9    3    4    3
 -0.007820384207989537    9    3    7    2
 -0.00349360243975811    9    3    8    7
 -0.001225211034221089    9    3    9    1
 0.009408933589308149    9    3    9    3
 -0.09103677913917109    9    4    1    1
 -0.09539084841239794    9    4    2    2
 0.00696786973071216    9    4    3    1
 -0.07493117598564833    9    4    3    3
 -0.08562994455491688    9    4    4    4
 -0.07706186075806613    9    4    5    5
 -0.08112594418435801    9    4    6    6
 -0.09089665792995558    9    4    7    7
 0.003304505643035809    9    4    8    2
 -0.08671715825093591    9    4    8    8
 0.06964271601816155    9    4    9    4
 -0.004284041898425366    9    5    5    4
 -0.004885356872798784    9    5    7    6
 0.007767615109101742    9    5    9    5
 -0.005335982405326502    9    6    6    4
 -0.0053359824053265    9    6    7    5
 0.007630111071792983    9    6    9    6
 0.09688237395463632    9    7    2    1
 -0.01775628624615429    9    7    3    2
 -0.0826117212871058    9    7    6    5
 -0.09328368609775879    9    7    7    4
 -0.01118955445703575    9    7    8    1
 -0.08077193740940078    9    7    8    3
 0.07392296964344298    9    7    9    7
 0.003349722618535732    9    8    4    2
 -0.003804722515566754    9    8    7    1
 -0.005276805214428354    9    8    7    3
 -0.006630395534487234    9    8    8    4
 -0.001587147563664853    9    8    9    2
 0.008091183340454651    9    8    9    8
 0.3904352456373814    9    9    1    1
 0.3900471498878567    9    9    2    2
 0.01166396879829984    9    9    3    1
 0.3700929598776919    9    9    3    3
 0.3896606713174839    9    9    4    4
 0.36468707494098    9    9    5    5
 0.3680534086696962    9    9    6    6
 0.3934503701887512    9    9    7    7
 -0.02199323021179442    9    9    8    2
 0.3807931992064748    9    9    8    8
 -0.07637332066677743    9    9    9    4
 0.3748839229196297    9    9    9    9
 -0.02158569772734741   10    1    5    1
 0.003839708845443317   10    1    5    3
 0.02350973261543962   10    1    6    2
 -0.002125116489114286   10    1    8    6
 0.02133205502514013   10    1   10    1
 -0.02601705695613579   10    2    5    2
 0.02603418079919074   10    2    6    1
 -0.003621022961617972   10    2    6    3
 0.002936130713279193   10    2    8    5
 0.02184448200420849   10    2   10    2
 0.007756248232539375   10    3    5    1
 -0.002833612307990757   10    3    5    3
 -0.00782038420798954   10    3    6    2
 -0.003493602439758112   10    3    8    6
 -0.00122521103422109   10    3   10    1
 0.009408933589308149   10    3   10    3
 -0.004284041898425366   10    4    5    4
 -0.004885356872798784   10    4    7    6
 0.007767615109101742   10    4    9    5
 0.007767615109101742   10    4   10    4
 -0.09103677913917108   10    5    1    1
 -0.09539084841239794   10    5    2    2
 0.006967869730712162   10    5    3    1
 -0.07493117598564832   10    5    3    3
 -0.07706186075806609   10    5    4    4
 -0.08562994455491688   10    5    5    5
 -0.0908966579299556   10    5    6    6
 -0.08112594418435798   10    5    7    7
 0.003304505643035806   10    5    8    2
 -0.08671715825093591   10    5    8    8
 0.05410748579995808   10    5    9    4
 -0.07056934384223872   10    5    9    9
 0.06964271601816159   10    5   10    5
 0.09688237395463635   10    6    2    1
 -0.01775628624615429   10    6    3    2
 -0.09328368609775883   10    6    6    5
 -0.08261172128710578   10    6    7    4
 -0.01118955445703575   10    6    8    1
 -0.08077193740940077   10    6    8    3
 0.05866274749985704   10    6    9    7
 0.07392296964344308   10    6   10    6
 -0.005335982405326499   10    7    6    4
 -0.005335982405326498   10    7    7    5
 0.007630111071792982   10    7    9    6
 0.007630111071792981   10    7   10    7
 0.003349722618535731   10    8    5    2
 -0.003804722515566752   10    8    6    1
 -0.005276805214428355   10    8    6    3
 -0.006630395534487233   10    8    8    5
 -0.001587147563664853   10    8   10    2
 0.008091183340454651   10    8   10    8
 0.01248679818825198   10    9    5    4
 0.0126984807595275   10    9    7    6
 -0.002901988412269333   10    9    9    5
 -0.002901988412269333   10    9   10    4
 0.01287158915382191   10    9   10    9
 0.3904352456373813   10   10    1    1
 0.3900471498878567   10   10    2    2
 0.01166396879829985   10   10    3    1
 0.3700929598776919   10   10    3    3
 0.36468707494098   10   10    4    4
 0.3896606713174839   10   10    5    5
 0.3934503701887511   10   10    6    6
 0.368053408669696   10   10    7    7
 -0.02199323021179442   10   10    8    2
 0.3807931992064748   10   10    8    8
 -0.07056934384223873   10   10    9    4
 0.3491407446119857   10   10    9    9
 -0.07637332066677741   10   10   10    5
 0.3748839229196295   10   10   10   10
 0.05086492817836952   11    1    1    1
 0.04989396824617053   11    1    2    2
 0.01395461544748117   11    1    3    1
 0.03458989455353231   11    1    3    3
 0.04438286011227317   11    1    4    4
 0.04438286011227315   11    1    5    5
 0.04694555940130862   11    1    6    6
 0.0469455594013086   11    1    7    7
 -0.02375806965143123   11    1    8    2
 0.05218523807189331   11    1    8    8
 -0.03642366871469581   11    1    9    4
 0.03868648424878861   11    1    9    9
 -0.03642366871469579   11    1   10    5
 0.03868648424878857   11    1   10   10
 0.03859341274082932   11    1   11    1
 0.05351486583004802   11    2    2    1
 0.01353345775532068   11    2    3    2
 -0.04947465007446435   11    2    6    5
 -0.04947465007446435   11    2    7    4
 -0.03148598659173405   11    2    8    1
 -0.04567207227310002   11    2    8    3
 0.03470795953192857   11    2    9    7
 0.03470795953192858   11    2   10    6
 0.03285817535752391   11    2   11    2
 0.04969487303124428   11    3    1    1
 0.05580363854595249   11    3    2    2
 -0.01267049581520064   11    3    3    1
 0.04065997405648406   11    3    3    3
 0.04104413660190771   11    3    4    4
 0.04104413660190771   11    3    5    5
 0.04565776445058604   11    3    6    6
 0.04565776445058603   11    3    7    7
 0.002362736082679791   11    3    8    2
 0.0594627415924419   11    3    8    8
 -0.03884428421733561   11    3    9    4
 0.03568496737213037   11    3    9    9
 -0.03884428421733561   11    3   10    5
 0.0356849673721304   11    3   10   10
 0.03592107916903418   11    3   11    1
 0.05113699635209538   11    3   11    3
 0.006939325899919885   11    4    4    1
 0.001350723950118407   11    4    4    3
 -0.007920128781279919   11    4    7    2
 0.005894591053888519   11    4    8    7
 -0.01432474098441102   11    4    9    1
 -0.006621616216428122   11    4    9    3
 0.0160335328908403   11    4   11    4
 0.006939325899919886   11    5    5    1
 0.001350723950118407   11    5    5    3
 -0.007920128781279921   11    5    6    2
 0.005894591053888521   11    5    8    6
 -0.01432474098441102   11    5   10    1
 -0.006621616216428123   11    5   10    3
 0.0160335328908403   11    5   11    5
 -0.01225869036679986   11    6    5    2
 0.01272813484959168   11    6    6    1
 0.004187800477583612   11    6    6    3
 0.007990149145495496   11    6    8    5
 0.01255647788835843   11    6   10    2
 -0.007131379486521374   11    6   10    8
 0.01280012318133816   11    6   11    6
 -0.01225869036679986   11    7    4    2
 0.01272813484959167   11    7    7    1
 0.004187800477583611   11    7    7    3
 0.007990149145495493   11    7    8    4
 0.01255647788835843   11    7    9    2
 -0.007131379486521371   11    7    9    8
 0.01280012318133816   11    7   11    7
 -0.1108256282226235   11    8    2    1
 0.008739921237099504   11    8    3    2
 0.09726781323544988   11    8    6    5
 0.09726781323544988   11    8    7    4
 0.02568438140858344   11    8    8    1
 0.1073910285755026   11    8    8    3
 -0.05726514363476164   11    8    9    7
 -0.05726514363476167   11    8   10    6
 -0.04252265683076489   11    8   11    2
 0.07743298568459296   11    8   11    8
 -0.0374973084235959   11    9    4    1
 -0.01054976688689097   11    9    4    3
 0.0357632345454837   11    9    7    2
 -0.01479449750530335   11    9    8    7
 0.006913574190793542   11    9    9    1
 -0.004039231821244674   11    9    9    3
 -0.001252677081282149   11    9   11    4
 0.03400719941246324   11    9   11    9
 -0.0374973084235959   11   10    5    1
 -0.01054976688689097   11   10    5    3
 0.03576323454548371   11   10    6    2
 -0.01479449750530335   11   10    8    6
 0.006913574190793543   11   10   10    1
 -0.004039231821244674   11   10   10    3
 -0.001252677081282147   11   10   11    5
 0.03400719941246323   11   10   11   10
 0.4318435379348276   11   11    1    1
 0.4151468614755314   11   11    2    2
 0.07230897541424743   11   11    3    1
 0.4273933208792609   11   11    3    3
 0.4028157064515882   11   11    4    4
 0.4028157064515882   11   11    5    5
 0.4012839161854828   11   11    6    6
 0.4012839161854828   11   11    7    7
 -0.07581980063211614   11   11    8    2
 0.439898291728934   11   11    8    8
 -0.0701912174273239   11   11    9    4
 0.3837786281810495   11   11    9    9
 -0.0701912174273239   11   11   10    5
 0.3837786281810494   11   11   10   10
 0.04638392819719993   11   11   11    1
 0.02565676899440469   11   11   11    3
 0.4854906412291773   11   11   11   11
 0.04451203030254289   12    1    2    1
 -0.0234875280583453   12    1    3    2
 -0.03841402717959852   12    1    6    5
 -0.03841402717959851   12    1    7    4
 0.01141476251186611   12    1    8    1
 -0.03458808335713074   12    1    8    3
 0.03248139257741806   12    1    9    7
 0.03248139257741806   12    1   10    6
 0.006462098214804898   12    1   11    2
 -0.01957439250880909   12    1   11    8
 0.02780009302299771   12    1   12    1
 0.05650092390304442   12    2    1    1
 0.06233197134076832   12    2    2    2
 -0.01887323737106927   12    2    3    1
 0.05006839192956   12    2    3    3
 0.05013013966761408   12    2    4    4
 0.05013013966761408   12    2    5    5
 0.05300467112966859   12    2    6    6
 0.05300467112966857   12    2    7    7
 0.01442518851655305   12    2    8    2
 0.05031403686208617   12    2    8    8
 -0.03635352375709122   12    2    9    4
 0.04678916645825119   12    2    9    9
 -0.03635352375709124   12    2   10    5
 0.04678916645825119   12    2   10   10
 0.009711398195550572   12    2   11    1
 0.01762431475951633   12    2   11    3
 0.0365284774949511   12    2   11   11
 0.03644910460936611   12    2   12    2
 -0.06459972580473797   12    3    2    1
 0.0151643004069106   12    3    3    2
 0.05430652027762782   12    3    6    5
 0.05430652027762779   12    3    7    4
 0.00430681826548132   12    3    8    1
 0.05938212321986588   12    3    8    3
 -0.04337272897234929   12    3    9    7
 -0.04337272897234934   12    3   10    6
 -0.01699953732536691   12    3   11    2
 0.04051854868305146   12    3   11    8
 -0.03208041929669318   12    3   12    1
 0.04864334040661653   12    3   12    3
 0.007559655665709877   12    4    4    2
 -0.007348578633431679   12    4    7    1
 0.003832487469856535   12    4    7    3
 0.001866114416354914   12    4    8    4
 -0.01210140187204488   12    4    9    2
 -0.004510674009641153   12    4    9    8
 -0.003678820288991661   12    4   11    7
 0.01162522384950204   12    4   12    4
 0.007559655665709876   12    5    5    2
 -0.007348578633431682   12    5    6    1
 0.003832487469856537   12    5    6    3
 0.001866114416354914   12    5    8    5
 -0.01210140187204488   12    5   10    2
 -0.004510674009641153   12    5   10    8
 -0.003678820288991659   12    5   11    6
 0.01162522384950204   12    5   12    5
 -0.006544329277361638   12    6    5    1
 0.004190279339771745   12    6    5    3
 0.007693424884381004   12    6    6    2
 0.002317088802193483   12    6    8    6
 0.01215957650575539   12    6   10    1
 -0.006274297734905206   12    6   10    3
 -0.004456682263858235   12    6   11    5
 -0.0008773998298374411   12    6   11   10
 0.0128418441583561   12    6   12    6
 -0.006544329277361633   12    7    4    1
 0.004190279339771744   12    7    4    3
 0.007693424884380998   12    7    7    2
 0.002317088802193482   12    7    8    7
 0.01215957650575539   12    7    9    1
 -0.006274297734905206   12    7    9    3
 -0.004456682263858235   12    7   11    4
 -0.0008773998298374427   12    7   11    9
 0.0128418441583561   12    7   12    7
 0.0723637711814967   12    8    1    1
 0.07319090760669165   12    8    2    2
 0.001825253155648667   12    8    3    1
 0.06997262503233653   12    8    3    3
 0.06118712870357626   12    8    4    4
 0.06118712870357627   12    8    5    5
 0.06291862130908348   12    8    6    6
 0.06291862130908345   12    8    7    7
 -0.005814150035615591   12    8    8    2
 0.07496616417718295   12    8    8    8
 -0.03767252514495494   12    8    9    4
 0.05780690334124473   12    8    9    9
 -0.03767252514495494   12    8   10    5
 0.05780690334124473   12    8   10   10
 0.01738414021527848   12    8   11    1
 0.02466913741420856   12    8   11    3
 0.07073518942055156   12    8   11   11
 0.03482356069430204   12    8   12    2
 0.04644227895143434   12    8   12    8
 -0.02931287207708655   12    9    4    2
 0.02869621524909517   12    9    7    1
 -0.01180823833249758   12    9    7    3
 -0.005924620323181248   12    9    8    4
 0.0106728395316225   12    9    9    2
 0.001548088480321742   12    9    9    8
 0.001150976577841643   12    9   11    7
 -0.003522659022460299   12    9   12    4
 0.02248274804104976   12    9   12    9
 -0.02931287207708655   12   10    5    2
 0.02869621524909517   12   10    6    1
 -0.01180823833249758   12   10    6    3
 -0.005924620323181249   12   10    8    5
 0.01067283953162249   12   10   10    2
 0.001548088480321742   12   10   10    8
 0.001150976577841646   12   10   11    6
 -0.003522659022460299   12   10   12    5
 0.02248274804104976   12   10   12   10
 -0.0272046484679768   12   11    2    1
 0.00580758111162869   12   11    3    2
 0.02117872222488544   12   11    6    5
 0.02117872222488546   12   11    7    4
 0.002811101787054114   12   11    8    1
 0.03231271878100024   12   11    8    3
 -0.0156784006992578   12   11    9    7
 -0.01567840069925776   12   11   10    6
 -0.008772673092577716   12   11   11    2
 0.02205139337736355   12   11   11    8
 -0.007909738133671346   12   11   12    1
 0.01574086699924946   12   11   12    3
 0.009903764642383309   12   11   12   11
 0.3598520883350612   12   12    1    1
 0.3724735514296931   12   12    2    2
 -0.04144336388203718   12   12    3    1
 0.3605215840714679   12   12    3    3
 0.3415139124940726   12   12    4    4
 0.3415139124940726   12   12    5    5
 0.3483634967599464   12   12    6    6
 0.3483634967599463   12   12    7    7
 0.0343554094183944   12   12    8    2
 0.3675830872269603   12   12    8    8
 -0.06587023352766616   12   12    9    4
 0.3253466678185881   12   12    9    9
 -0.06587023352766624   12   12   10    5
 0.3253466678185882   12   12   10   10
 0.02452569341510105   12   12   11    1
 0.0473729319060355   12   12   11    3
 0.3144664285680005   12   12   11   11
 0.04743697971008752   12   12   12    2
 0.04502874395889891   12   12   12    8
 0.3652964651215047   12   12   12   12
 -0.05511773257227744   13    1    1    1
 -0.05994492268143499   13    1    2    2
 0.01500691111091327   13    1    3    1
 -0.04992498139926945   13    1    3    3
 -0.04784859156006199   13    1    4    4
 -0.047848591560062   13    1    5    5
 -0.05049122477814377   13    1    6    6
 -0.05049122477814377   13    1    7    7
 -0.01090790028670123   13    1    8    2
 -0.05098847774877335   13    1    8    8
 0.03582255486113769   13    1    9    4
 -0.04498110576196202   13    1    9    9
 0.03582255486113767   13    1   10    5
 -0.044981105761962   13    1   10   10
 -0.01148038274168738   13    1   11    1
 -0.01770217091739873   13    1   11    3
 -0.03887686761852028   13    1   11   11
 -0.03326838194341705   13    1   12    2
 -0.0322931558041217   13    1   12    8
 -0.0452207581025797   13    1   12   12
 0.03092071889280271   13    1   13    1
 -0.05797469272695107   13    2    2    1
 0.0248391956771082   13    2    3    2
 0.04914816079804304   13    2    6    5
 0.04914816079804303   13    2    7    4
 -0.008482915329510782   13    2    8    1
 0.04838501537110411   13    2    8    3
 -0.04188804855930876   13    2    9    7
 -0.04188804855930875   13    2   10    6
 -0.01197608019702755   13    2   11    2
 0.02975293682532951   13    2   11    8
 -0.03252553555664792   13    2   12    1
 0.04000515192627721   13    2   12    3
 0.01142143734344663   13    2   12   11
 0.03907273937212735   13    2   13    2
 0.06611940592065813   13    3    1    1
 0.06969505725071377   13    3    2    2
 -0.009122808751187695   13    3    3    1
 0.06265228228843421   13    3    3    3
 0.05675725459910686   13    3    4    4
 0.05675725459910687   13    3    5    5
 0.0591270040665033   13    3    6    6
 0.05912700406650328   13    3    7    7
 0.004764708173883561   13    3    8    2
 0.06614929662711644   13    3    8    8
 -0.03722738608529267   13    3    9    4
 0.05339759478022973   13    3    9    9
 -0.03722738608529267   13    3   10    5
 0.05339759478022976   13    3   10   10
 0.01392935970694142   13    3   11    1
 0.02381829604546823   13    3   11    3
 0.05476161696601737   13    3   11   11
 0.03679959206643976   13    3   12    2
 0.04343635423797751   13    3   12    8
 0.04821770024104172   13    3   12   12
 -0.03362337044528477   13    3   13    1
 0.04274115738926684   13    3   13    3
 -0.004305241773571216   13    4    4    1
 0.003626603755257772   13    4    4    3
 0.005378235346195254   13    4    7    2
 0.001939271796288035   13    4    8    7
 0.01284393472667193   13    4    9    1
 -0.005299331586874968   13    4    9    3
 -0.005898194344440309   13    4   11    4
 -0.001763850212826033   13    4   11    9
 0.01298561962410077   13    4   12    7
 0.01356741534582762   13    4   13    4
 -0.004305241773571215   13    5    5    1
 0.003626603755257772   13    5    5    3
 0.005378235346195255   13    5    6    2
 0.001939271796288035   13    5    8    6
 0.01284393472667193   13    5   10    1
 -0.00529933158687497   13    5   10    3
 -0.005898194344440307   13    5   11    5
 -0.00176385021282603   13    5   11   10
 0.01298561962410077   13    5   12    6
 0.01356741534582761   13    5   13    5
 0.006787231881933435   13    6    5    2
 -0.006602804839422589   13    6    6    1
 0.003530277959520112   13    6    6    3
 0.001614906796184544   13    6    8    5
 -0.01374016343989245   13    6   10    2
 -0.003966287239176251   13    6   10    8
 -0.005236000114834943   13    6   11    6
 0.01269041594707815   13    6   12    5
 -0.00282709682377636   13    6   12   10
 0.01420856526821037   13    6   13    6
 0.00678723188193343   13    7    4    2
 -0.006602804839422582   13    7    7    1
 0.00353027795952011   13    7    7    3
 0.001614906796184543   13    7    8    4
 -0.01374016343989245   13    7    9    2
 -0.00396628723917625   13    7    9    8
 -0.005236000114834943   13    7   11    7
 0.01269041594707815   13    7   12    4
 -0.002827096823776349   13    7   12    9
 0.01420856526821037   13    7   13    7
 -0.04618295293614567   13    8    2    1
 0.01286311164896227   13    8    3    2
 0.03794401032265032   13    8    6    5
 0.03794401032265032   13    8    7    4
 0.001031888429992609   13    8    8    1
 0.04277637025603213   13    8    8    3
 -0.0327972739441726   13    8    9    7
 -0.03279727394417261   13    8   10    6
 -0.01055035618385979   13    8   11    2
 0.02947154857689166   13    8   11    8
 -0.02736001553215294   13    8   12    1
 0.04129330079340682   13    8   12    3
 0.01266379038961373   13    8   12   11
 0.0335785495564598   13    8   13    2
 0.03592157476636391   13    8   13    8
 0.03473194622338107   13    9    4    1
 -0.009355348671360534   13    9    4    3
 -0.03684540713899022   13    9    7    2
 -0.004491769151740546   13    9    8    7
 -0.009900586836300539   13    9    9    1
 0.005770764828008393   13    9    9    3
 -0.0001231295776931724   13    9   11    4
 -0.01556684724353054   13    9   11    9
 -0.003095494727457591   13    9   12    7
 -0.001352370205328011   13    9   13    4
 0.02765323438933255   13    9   13    9
 0.03473194622338106   13   10    5    1
 -0.009355348671360536   13   10    5    3
 -0.03684540713899023   13   10    6    2
 -0.004491769151740545   13   10    8    6
 -0.009900586836300544   13   10   10    1
 0.005770764828008393   13   10   10    3
 -0.0001231295776931687   13   10   11    5
 -0.01556684724353055   13   10   11   10
 -0.003095494727457601   13   10   12    6
 -0.001352370205328019   13   10   13    5
 0.02765323438933256   13   10   13   10
 0.01134716797665357   13   11    1    1
 0.01192807494261796   13   11    2    2
 -0.002193066283330741   13   11    3    1
 0.0188511693973274   13   11    3    3
 0.006210839727534926   13   11    4    4
 0.006210839727534895   13   11    5    5
 0.006470482575559698   13   11    6    6
 0.006470482575559727   13   11    7    7
 0.003257354137197186   13   11    8    2
 0.01931616205928942   13   11    8    8
 -0.007492687753559346   13   11    9    4
 0.007474697639163608   13   11    9    9
 -0.007492687753559308   13   11   10    5
 0.007474697639163542   13   11   10   10
 0.002015870869676219   13   11   11    1
 0.006786665772517553   13   11   11    3
 0.01474933131759154   13   11   11   11
 0.007131602538199942   13   11   12    2
 0.01054762852867827   13   11   12    8
 0.01568308319760107   13   11   12   12
 -0.007139089693277551   13   11   13    1
 0.009698108947412883   13   11   13    3
 0.00636332620006756   13   11   13   11
 -0.195707347983448   13   12    2    1
 0.08537679266683419   13   12    3    2
 0.1783725770162653   13   12    6    5
 0.1783725770162653   13   12    7    4
 -0.03249610046184547   13   12    8    1
 0.1844669551067233   13   12    8    3
 -0.06805920300825062   13   12    9    7
 -0.06805920300825065   13   12   10    6
 -0.02367857435253887   13   12   11    2
 0.08127715110399915   13   12   11    8
 -0.03693650558541518   13   12   12    1
 0.04330472359445286   13   12   12    3
 0.02663875392828358   13   12   12   11
 0.0461946900869111   13   12   13    2
 0.02976381971779284   13   12   13    8
 0.2175272707849137   13   12   13   12
 0.3602463423617592   13   13    1    1
 0.372374987321087   13   13    2    2
 -0.03987739622026303   13   13    3    1
 0.3586396033252167   13   13    3    3
 0.3433316658712804   13   13    4    4
 0.3433316658712804   13   13    5    5
 0.3499175500900735   13   13    6    6
 0.3499175500900734   13   13    7    7
 0.03276786067863844   13   13    8    2
 0.3645155770615468   13   13    8    8
 -0.06367592823410034   13   13    9    4
 0.3266805663550993   13   13    9    9
 -0.06367592823410038   13   13   10    5
 0.3266805663550994   13   13   10   10
 0.02245525498522959   13   13   11    1
 0.04394670035998817   13   13   11    3
 0.3153257234857118   13   13   11   11
 0.04767395548615624   13   13   12    2
 0.04541578331740677   13   13   12    8
 0.3607663973992438   13   13   12   12
 -0.04496973843284804   13   13   13    1
 0.04850959026143897   13   13   13    3
 0.01405104132100181   13   13   13   11
 0.357435333673663   13   13   13   13
 -0.02143559050216621   14    1    5    2
 0.02161065339696132   14    1    6    1
 -0.0008911093237968859   14    1    6    3
 0.0047985480727271   14    1    8    5
 0.020151834093167   14    1   10    2
 -0.002538379628889716   14    1   10    8
 0.01292139704435709   14    1   11    6
 -0.01106357320551529   14    1   12    5
 0.007414450397825726   14    1   12   10
 -0.01287957747948795   14    1   13    6
 0.01915125168902156   14    1   14    1
 -0.02076840752910529   14    2    5    1
 0.001285208242217837   14    2    5    3
 0.02205065034403112   14    2    6    2
 -0.004027913119408671   14    2    8    6
 0.02041384004542243   14    2   10    1
 -0.002487387796133101   14    2   10    3
 -0.01308063896067717   14    2   11    5
 0.008659960120292682   14    2   11   10