 &FCI NORB=  26,NELEC=10,MS2=0,
  ORBSYM=1,1,1,1,1,1,1,1,1,1,1,1,1,1,1,1,1,1,1,1,1,1,1,1,1,1
  ISYM=1,
 &END
 0.6938658603173713    1    1    1    1
 0.09039530805288462    2    1    2    1
 0.5009329918929697    2    2    1    1
 0.5201097352929956    2    2    2    2
 -0.120611741385319    3    1    1    1
 0.002300581677701574    3    1    2    2
 0.07461492628126884    3    1    3    1
 0.1091250926819772    3    2    2    1
 0.1826892308304316    3    2    3    2
 0.5383621655841248    3    3    1    1
 0.5223458809251499    3    3    2    2
 -0.02524566003992202    3    3    3    1
 0.5478578585122352    3    3    3    3
 0.08717257601184217    4    1    4    1
 0.04701988594845253    4    2    4    2
 0.006517667367686546    4    3    4    1
 0.02138354118619083    4    3    4    3
 0.5627423971818655    4    4    1    1
 0.4738406246299738    4    4    2    2
 -0.05298868669583807    4    4    3    1
 0.4793592695911841    4    4    3    3
 0.5234374191944884    4    4    4    4
 0.08717257601184215    5    1    5    1
 0.04701988594845253    5    2    5    2
 0.006517667367686544    5    3    5    1
 0.02138354118619083    5    3    5    3
 0.02010030679324139    5    4    5    4
 0.5627423971818656    5    5    1    1
 0.4738406246299737    5    5    2    2
 -0.05298868669583805    5    5    3    1
 0.4793592695911841    5    5    3    3
 0.4832368056080055    5    5    4    4
 0.5234374191944884    5    5    5    5
 0.04197064608245341    6    1    5    2
 0.040877529518225    6    1    6    1
 0.0665332141143803    6    2    5    1
 0.02668188719834714    6    2    5    3
 0.07400544533149366    6    2    6    2
 0.03089739678440368    6    3    5    2
 0.02187569224617967    6    3    6    1
 0.03057775072951018    6    3    6    3
 0.01470637773645667    6    4    6    4
 0.1120514710373939    6    5    2    1
 0.1301132004338532    6    5    3    2
 0.1583110447988811    6    5    6    5
 0.514042187080863    6    6    1    1
 0.4779429695543975    6    6    2    2
 -0.0239495642533884    6    6    3    1
 0.4763341786516334    6    6    3    3
 0.4592751280243444    6    6    4    4
 0.4947110900445274    6    6    5    5
 0.4869982379382504    6    6    6    6
 0.04197064608245338    7    1    4    2
 0.0408775295182249    7    1    7    1
 0.06653321411438026    7    2    4    1
 0.02668188719834714    7    2    4    3
 0.07400544533149361    7    2    7    2
 0.0308973967844037    7    3    4    2
 0.02187569224617968    7    3    7    1
 0.03057775072951018    7    3    7    3
 0.1120514710373938    7    4    2    1
 0.1301132004338531    7    4    3    2
 0.1288982893259677    7    4    6    5
 0.1583110447988809    7    4    7    4
 0.01470637773645666    7    5    6    4
 0.01470637773645665    7    5    7    5
 0.01771798101009145    7    6    5    4
 0.01861334602492494    7    6    7    6
 0.5140421870808626    7    7    1    1
 0.4779429695543972    7    7    2    2
 -0.02394956425338832    7    7    3    1
 0.4763341786516331    7    7    3    3
 0.494711090044527    7    7    4    4
 0.4592751280243441    7    7    5    5
 0.4497715458884002    7    7    6    6
 0.4869982379382497    7    7    7    7
 -0.05904480434714841    8    1    2    1
 -0.03450055742403402    8    1    3    2
 -0.07521015520881694    8    1    6    5
 -0.07521015520881684    8    1    7    4
 0.07044028487979219    8    1    8    1
 -0.0936352589378171    8    2    1    1
 -0.02389164513711703    8    2    2    2
 0.03644066791276678    8    2    3    1
 -0.02181202439829177    8    2    3    3
 -0.06674415920755039    8    2    4    4
 -0.0667441592075504    8    2    5    5
 -0.04888923860615326    8    2    6    6
 -0.04888923860615311    8    2    7    7
 0.04258659111711748    8    2    8    2
 0.05784277820927091    8    3    2    1
 0.08439221927426149    8    3    3    2
 0.06721762227388008    8    3    6    5
 0.06721762227388002    8    3    7    4
 -0.03336894102572325    8    3    8    1
 0.06209014417538523    8    3    8    3
 -0.0231445195683922    8    4    4    2
 -0.0267698356328358    8    4    7    1
 -0.003974679209967857    8    4    7    3
 0.02389837332003686    8    4    8    4
 -0.02314451956839221    8    5    5    2
 -0.02676983563283584    8    5    6    1
 -0.003974679209967857    8    5    6    3
 0.02389837332003689    8    5    8    5
 -0.04039334306297308    8    6    5    1
 0.001994133310588366    8    6    5    3
 -0.02578651219925799    8    6    6    2
 0.02590342187578036    8    6    8    6
 -0.04039334306297302    8    7    4    1
 0.001994133310588368    8    7    4    3
 -0.0257865121992579    8    7    7    2
 0.02590342187578026    8    7    8    7
 0.4935856720062639    8    8    1    1
 0.4291948581146158    8    8    2    2
 -0.04515336515269706    8    8    3    1
 0.4483931893440478    8    8    3    3
 0.4331216421897298    8    8    4    4
 0.4331216421897298    8    8    5    5
 0.4185190924280368    8    8    6    6
 0.4185190924280363    8    8    7    7
 -0.03255010433062377    8    8    8    2
 1.093760109578918e-15    8    8    8    3
 0.4208650506633845    8    8    8    8
 0.05192686597029938    9    1    1    1
 0.007469390130147351    9    1    2    2
 -0.03264711087725887    9    1    3    1
 0.0281238527068944    9    1    3    3
 0.01423646314036883    9    1    4    4
 0.01423646314036884    9    1    5    5
 0.0102177343610484    9    1    6    6
 0.01021773436104832    9    1    7    7
 -0.005840612452123266    9    1    8    2
 0.02978250855276922    9    1    8    8
 0.02836823204862788    9    1    9    1
 -0.01609472074827905    9    2    2    1
 -0.01671498926237081    9    2    3    2
 -0.02057015388098423    9    2    6    5
 -0.0205701538809842    9    2    7    4
 0.01384255922563375    9    2    8    1
 0.004214068693662218    9    2    8    3
 0.02145153681224602    9    2    9    2
 -0.1280366041838795    9    3    1    1
 -0.07521758683598713    9    3    2    2
 0.03624265412749998    9    3    3    1
 -0.08906322071457125    9    3    3    3
 -0.08812470770798453    9    3    4    4
 -0.0881247077079845    9    3    5    5
 -0.07646511866717737    9    3    6    6
 -0.07646511866717723    9    3    7    7
 0.03355511102193451    9    3    8    2
 -0.05837204353758102    9    3    8    8
 -0.01747853214902116    9    3    9    1
 0.06078918354879872    9    3    9    3
 -0.02118483941483346    9    4    4    1
 -0.006169365188750448    9    4    4    3
 -0.01875271006736597    9    4    7    2
 0.01074818333086187    9    4    8    7
 0.01448408390625905    9    4    9    4
 -0.02118483941483346    9    5    5    1
 -0.006169365188750447    9    5    5    3
 -0.01875271006736598    9    5    6    2
 0.01074818333086186    9    5    8    6
 0.01448408390625905    9    5    9    5
 -0.007975188436550245    9    6    5    2
 -0.006304091821469098    9    6    6    1
 -0.00451002950376696    9    6    6    3
 0.00568617064923243    9    6    8    5
 0.008421450983357264    9    6    9    6
 -0.007975188436550221    9    7    4    2
 -0.006304091821469077    9    7    7    1
 -0.004510029503766917    9    7    7    3
 0.005686170649232431    9    7    8    4
 0.008421450983357264    9    7    9    7
 0.02298805167731538    9    8    2    1
 0.05440694938459811    9    8    3    2
 0.02975678658772721    9    8    6    5
 0.02975678658772727    9    8    7    4
 0.01297564140811111    9    8    8    1
 0.03001496309674512    9    8    8    3
 1.582889909863573e-15    9    8    8    8
 0.01762800276222238    9    8    9    2
 0.06307040032327578    9    8    9    8
 0.4422790464472582    9    9    1    1
 0.4034693497728053    9    9    2    2
 -0.03036274473390201    9    9    3    1
 0.4217278068515758    9    9    3    3
 0.3983647994654552    9    9    4    4
 0.3983647994654552    9    9    5    5
 0.3882122897740148    9    9    6    6
 0.3882122897740146    9    9    7    7
 -0.01859981910223715    9    9    8    2
 0.3877535566401731    9    9    8    8
 0.0209266277736032    9    9    9    1
 -0.04740769649238787    9    9    9    3
 0.3712539494431328    9    9    9    9
 -0.02522604470729356   10    1    2    1
 -0.001877700258379926   10    1    3    2
 -0.03315318240430275   10    1    6    5
 -0.03315318240430273   10    1    7    4
 0.04201004308841075   10    1    8    1
 -0.02066202850515387   10    1    8    3
 -0.001435357576060856   10    1    9    2
 0.007568182819933408   10    1    9    8
 0.03221691103576697   10    1   10    1
 0.02480181273480832   10    2    1    1
 0.07749290160429492   10    2    2    2
 0.02458399335413989   10    2    3    1
 0.07833173168523143   10    2    3    3
 0.03462015573718279   10    2    4    4
 0.03462015573718281   10    2    5    5
 0.04529813038529859   10    2    6    6
 0.04529813038529842   10    2    7    7
 0.009962115183754217   10    2    8    2
 0.02318399604953359   10    2    8    8
 -0.006750491462856718   10    2    9    1
 -0.02495520531053508   10    2    9    3
 0.02692178897156481   10    2    9    9
 0.05108948902968333   10    2   10    2
 0.07546286737146057   10    3    2    1
 0.1030963824117416   10    3    3    2
 0.08696939610157675   10    3    6    5
 0.08696939610157665   10    3    7    4
 -0.05272253600875858   10    3    8    1
 0.0528436972221971   10    3    8    3
 -1.618593238147284e-15   10    3    8    8
 -0.03090390162484006   10    3    9    2
 -0.01299931663135793   10    3    9    8
 -0.01741139870039736   10    3   10    1
 0.1084401832866967   10    3   10    3
 -0.005084607989466784   10    4    4    2
 -0.009539087010450444   10    4    7    1
 0.00405405217799659   10    4    7    3
 0.0101452454980467   10    4    8    4
 -0.003538383556441561   10    4    9    7
 0.01064962132831118   10    4   10    4
 -0.00508460798946678   10    5    5    2
 -0.009539087010450456   10    5    6    1
 0.004054052177996602   10    5    6    3
 0.0101452454980467   10    5    8    5
 -0.003538383556441566   10    5    9    6
 0.01064962132831117   10    5   10    5
 -0.01794488617427092   10    6    5    1
 0.005781936453197863   10    6    5    3
 -0.007124183105988374   10    6    6    2
 0.00917329718424752   10    6    8    6
 -0.0004775344874270927   10    6    9    5
 0.01409881549890831   10    6   10    6
 -0.01794488617427092   10    7    4    1
 0.005781936453197837   10    7    4    3
 -0.00712418310598841   10    7    7    2
 0.009173297184247522   10    7    8    7
 -0.0004775344874271013   10    7    9    4
 0.01409881549890826   10    7   10    7
 0.1687978993703045   10    8    1    1
 0.09598756962927864   10    8    2    2
 -0.04681333820292271   10    8    3    1
 0.1106899870769413   10    8    3    3
 0.1197936620579347   10    8    4    4
 0.1197936620579348   10    8    5    5
 0.1011334764893276   10    8    6    6
 0.1011334764893276   10    8    7    7
 -0.04322870474852269   10    8    8    2
 -1.112545405078925e-15   10    8    8    3
 0.08159680221582033   10    8    8    8
 0.01953022574162055   10    8    9    1
 -0.06611429103414687   10    8    9    3
 -1.732695784168226e-15   10    8    9    8
 0.06171931444895935   10    8    9    9
 0.02184186358915918   10    8   10    2
 0.08571105520800346   10    8   10    8
 -0.07560045648163112   10    9    2    1
 -0.1101093991473071   10    9    3    2
 -0.0917197213872066   10    9    6    5
 -0.09171972138720658   10    9    7    4
 0.04241725294160843   10    9    8    1
 -0.07327277775820377   10    9    8    3
 -2.160712901091583e-15   10    9    8    8
 0.001998826451778715   10    9    9    2
 -0.03837460417428255   10    9    9    8
 0.02333331979155176   10    9   10    1
 -0.06957147588928152   10    9   10    3
 1.462390662504391e-15   10    9   10    8
 0.1016948090151379   10    9   10    9
 0.4904735934807256   10   10    1    1
 0.475531272553567   10   10    2    2
 -0.02374668630530033   10   10    3    1
 0.499625863164136   10   10    3    3
 0.440039634593386   10   10    4    4
 0.4400396345933859   10   10    5    5
 0.4379033181020072   10   10    6    6
 0.4379033181020068   10   10    7    7
 -0.01929565205959352   10   10    8    2
 0.4253706751557971   10   10    8    8
 0.0272914656410646   10   10    9    1
 -0.08106378321938137   10   10    9    3
 1.88566464985201e-15   10   10    9    8
 0.4013892783965508   10   10    9    9
 0.06746735426183038   10   10   10    2
 0.09495738554231191   10   10   10    8
 -1.587954534065385e-15   10   10   10    9
 0.4785832097617393   10   10   10   10
 -0.02671182922442746   11    1    4    1
 0.001068029030915811   11    1    4    3
 -0.01925022718312767   11    1    7    2
 0.01635736319925573   11    1    8    7
 0.0001890750835167558   11    1    9    4
 0.00345705540364073   11    1   10    7
 0.02193789660749892   11    1   11    1
 -0.01728641354438047   11    2    4    2
 -0.01646392146181056   11    2    7    1
 -0.008073667062180542   11    2    7    3
 0.01200355876380317   11    2    8    4
 0.006759884926427412   11    2    9    7
 -0.001304286596107298   11    2   10    4
 0.01661532114257332   11    2   11    2
 0.006402863738131354   11    3    4    1
 -0.006747187487737177   11    3    4    3
 -0.001760199739327194   11    3    7    2
 -0.002077208800531764   11    3    8    7
 0.003999331184401461   11    3    9    4
 -0.01014157294256651   11    3   10    7
 0.0004586307307423691   11    3   11    1
 0.009541972139057683   11    3   11    3
 -0.1275794629751588   11    4    1    1
 -0.09577979261418341   11    4    2    2
 0.02344749894408777   11    4    3    1
 -0.1026216461818942   11    4    3    3
 -0.09816912922981184   11    4    4    4
 -0.09247273626763193   11    4    5    5
 -0.08814266694520108   11    4    6    6
 -0.09506212048125373   11    4    7    7
 0.02649038876338434   11    4    8    2
 -0.0803554482514325   11    4    8    8
 -0.01802958357694551   11    4    9    1
 0.04788395784262864   11    4    9    3
 -0.05823227121165671   11    4    9    9
 -0.02361552890416823   11    4   10    2
 -0.05443181881307396   11    4   10    8
 -0.09634759077115641   11    4   10   10
 0.07354757447772639   11    4   11    4
 -0.002848196481089946   11    5    5    4
 -0.00345972676802642   11    5    7    6
 0.008264258420324654   11    5   11    5
 -0.004505076679086477   11    6    6    4
 -0.004505076679086463   11    6    7    5
 0.007277588456349482   11    6   11    6
 -0.04852490056751296   11    7    2    1
 -0.04558413616740439   11    7    3    2
 -0.05465480008146493   11    7    6    5
 -0.06366495343963773   11    7    7    4
 0.04517225045035925   11    7    8    1
 -0.02430260989765742   11    7    8    3
 0.0203929750368762   11    7    9    2
 0.01414263513895471   11    7    9    8
 0.01864690893876218   11    7   10    1
 -0.05864011465575317   11    7   10    3
 0.03644941366179031   11    7   10    9
 0.06065515329685916   11    7   11    7
 0.01654518648913914   11    8    4    2
 0.01834860612190062   11    8    7    1
 0.005744022966952645   11    8    7    3
 -0.01271868051900531   11    8    8    4
 0.001907564311560136   11    8    9    7
 -0.007741407390520143   11    8   10    4
 -0.00860969111146655   11    8   11    2
 0.01395261821231894   11    8   11    8
 -0.0109242434522725   11    9    4    1
 0.009176442080149604   11    9    4    3
 0.00295088309634484   11    9    7    2
 0.009055229069725007   11    9    8    7
 0.004915272230884601   11    9    9    4
 0.00532827503137838   11    9   10    7
 -0.0003425545664088127   11    9   11    1
 -0.004424383089732877   11    9   11    3
 0.01330994863556834   11    9   11    9
 -0.007528548249510896   11   10    4    2
 -0.001387040855012525   11   10    7    1
 -0.01395677655089871   11   10    7    3
 -0.006256572817083232   11   10    8    4
 0.00142667118385807   11   10    9    7
 -0.00578139509291937   11   10   10    4
 -0.0008051877211877775   11   10   11    2
 0.002572669210438296   11   10   11    8
 0.01205254312663055   11   10   11   10
 0.4833053687855639   11   11    1    1
 0.4243885123798427   11   11    2    2
 -0.03644606502618793   11   11    3    1
 0.4283287990265409   11   11    3    3
 0.458096443829115   11   11    4    4
 0.4281703446520519   11   11    5    5
 0.412548490552514   11   11    6    6
 0.4403296258649614   11   11    7    7
 -0.05046108530749301   11   11    8    2
 0.3884109817963874   11   11    8    8
 0.01180724570985867   11   11    9    1
 -0.07291973770988264   11   11    9    3
 0.365558009612769   11   11    9    9
 0.03255521507051984   11   11   10    2
 0.09594267118319014   11   11   10    8
 0.4028391183006536   11   11   10   10
 -0.07694386804411388   11   11   11    4
 0.4256645492075264   11   11   11   11
 -0.02671182922442745   12    1    5    1
 0.001068029030915802   12    1    5    3
 -0.0192502271831277   12    1    6    2
 0.01635736319925575   12    1    8    6
 0.0001890750835167568   12    1    9    5
 0.003457055403640739   12    1   10    6
 0.02193789660749892   12    1   12    1
 -0.01728641354438049   12    2    5    2
 -0.0164639214618106   12    2    6    1
 -0.008073667062180569   12    2    6    3
 0.01200355876380317   12    2    8    5
 0.006759884926427423   12    2    9    6
 -0.001304286596107294   12    2   10    5
 0.01661532114257333   12    2   12    2
 0.006402863738131332   12    3    5    1
 -0.006747187487737187   12    3    5    3
 -0.00176019973932723   12    3    6    2
 -0.002077208800531785   12    3    8    6
 0.00399933118440147   12    3    9    5
 -0.01014157294256651   12    3   10    6
 0.0004586307307423788   12    3   12    1
 0.009541972139057686   12    3   12    3
 -0.002848196481089947   12    4    5    4
 -0.003459726768026421   12    4    7    6
 0.008264258420324655   12    4   11    5
 0.008264258420324655   12    4   12    4
 -0.1275794629751588   12    5    1    1
 -0.09577979261418346   12    5    2    2
 0.02344749894408776   12    5    3    1
 -0.1026216461818942   12    5    3    3
 -0.09247273626763194   12    5    4    4
 -0.09816912922981189   12    5    5    5
 -0.09506212048125401   12    5    6    6
 -0.08814266694520093   12    5    7    7
 0.02649038876338434   12    5    8    2
 -0.08035544825143262   12    5    8    8
 -0.01802958357694552   12    5    9    1
 0.04788395784262863   12    5    9    3
 -0.05823227121165667   12    5    9    9
 -0.02361552890416828   12    5   10    2
 -0.0544318188130739   12    5   10    8
 -0.09634759077115641   12    5   10   10
 0.05701905763707702   12    5   11    4
 -0.07603865869739346   12    5   11   11
 0.07354757447772639   12    5   12    5
 -0.04852490056751316   12    6    2    1
 -0.04558413616740466   12    6    3    2
 -0.06366495343963814   12    6    6    5
 -0.05465480008146505   12    6    7    4
 0.04517225045035946   12    6    8    1
 -0.02430260989765754   12    6    8    3
 0.0203929750368762   12    6    9    2
 0.01414263513895474   12    6    9    8
 0.0186469089387622   12    6   10    1
 -0.05864011465575337   12    6   10    3
 0.03644941366179046   12    6   10    9
 0.04609997638416029   12    6   11    7
 0.06065515329685942   12    6   12    6
 -0.004505076679086458   12    7    6    4
 -0.004505076679086444   12    7    7    5
 0.007277588456349476   12    7   11    6
 0.007277588456349471   12    7   12    7
 0.01654518648913914   12    8    5    2
 0.01834860612190065   12    8    6    1
 0.005744022966952637   12    8    6    3
 -0.01271868051900529   12    8    8    5
 0.001907564311560121   12    8    9    6
 -0.007741407390520158   12    8   10    5
 -0.008609691111466552   12    8   12    2
 0.01395261821231891   12    8   12    8
 -0.0109242434522725   12    9    5    1
 0.009176442080149607   12    9    5    3
 0.002950883096344849   12    9    6    2
 0.009055229069724982   12    9    8    6
 0.004915272230884603   12    9    9    5
 0.005328275031378412   12    9   10    6
 -0.0003425545664088229   12    9   12    1
 -0.004424383089732885   12    9   12    3
 0.01330994863556834   12    9   12    9
 -0.007528548249510902   12   10    5    2
 -0.001387040855012519   12   10    6    1
 -0.01395677655089872   12   10    6    3
 -0.006256572817083248   12   10    8    5
 0.001426671183858094   12   10    9    6
 -0.00578139509291936   12   10   10    5
 -0.0008051877211877671   12   10   12    2
 0.002572669210438321   12   10   12    8
 0.01205254312663053   12   10   12   10
 0.01496304958853146   12   11    5    4
 0.01389056765622386   12   11    7    6
 -0.0004526046733602023   12   11   11    5
 -0.0004526046733602026   12   11   12    4
 0.01590210011732771   12   11   12   11
 0.483305368785564   12   12    1    1
 0.4243885123798426   12   12    2    2
 -0.03644606502618795   12   12    3    1
 0.428328799026541   12   12    3    3
 0.428170344652052   12   12    4    4
 0.458096443829115   12   12    5    5
 0.4403296258649618   12   12    6    6
 0.4125484905525138   12   12    7    7
 -0.0504610853074929   12   12    8    2
 0.3884109817963864   12   12    8    8
 0.01180724570985867   12   12    9    1
 -0.07291973770988261   12   12    9    3
 0.3655580096127689   12   12    9    9
 0.0325552150705198   12   12   10    2
 0.09594267118319064   12   12   10    8
 0.4028391183006534   12   12   10   10
 -0.07603865869739351   12   12   11    4
 0.393860348972871   12   12   11   11
 -0.07694386804411391   12   12   12    5
 0.4256645492075266   12   12   12   12
 0.09161620064316707   13    1    1    1
 0.06407477614303589   13    1    2    2
 -0.02332958146992861   13    1    3    1
 0.07803815365791304   13    1    3    3
 0.05693161331648217   13    1    4    4
 0.05693161331648217   13    1    5    5
 0.05618565043065074   13    1    6    6
 0.05618565043065058   13    1    7    7
 -0.01423250558848767   13    1    8    2
 0.0563889144944144   13    1    8    8
 0.02337988971053998   13    1    9    1
 -0.03811457471226319   13    1    9    3
 0.04152808797458957   13    1    9    9
 0.01848904277911785   13    1   10    2
 0.0405563549618225   13    1   10    8
 0.07176142086473826   13    1   10   10
 -0.04587656234885981   13    1   11    4
 0.04734449814894624   13    1   11   11
 -0.04587656234885981   13    1   12    5
 0.04734449814894626   13    1   12   12
 0.04023874213971895   13    1   13    1
 0.04805953083446927   13    2    2    1
 0.06969624400081693   13    2    3    2
 0.05384136182349214   13    2    6    5
 0.05384136182349208   13    2    7    4
 -0.02821136491014353   13    2    8    1
 0.03081212772264901   13    2    8    3
 -0.02110342938503459   13    2    9    2
 -0.005496556325722887   13    2    9    8
 -0.004534808266059154   13    2   10    1
 0.06857309838146571   13    2   10    3
 -0.0429830041121811   13    2   10    9
 -0.04310764699197608   13    2   11    7
 -0.04310764699197617   13    2   12    6
 0.04975224309438119   13    2   13    2
 0.01359980062279486   13    3    1    1
 0.06530136742420743   13    3    2    2
 0.02736117899596157   13    3    3    1
 0.05963429020251684   13    3    3    3
 0.03016575887501395   13    3    4    4
 0.03016575887501394   13    3    5    5
 0.03882023561485233   13    3    6    6
 0.03882023561485226   13    3    7    7
 0.007705093828246856   13    3    8    2
 0.01786543156241664   13    3    8    8
 -0.01273730684549517   13    3    9    1
 -0.01591494478067839   13    3    9    3
 0.01984627517337075   13    3    9    9
 0.04255123740025613   13    3   10    2
 0.0141569893148296   13    3   10    8
 0.05246813203470633   13    3   10   10
 -0.01979368563935463   13    3   11    4
 0.02708912887922235   13    3   11   11
 -0.01979368563935465   13    3   12    5
 0.0270891288792224   13    3   12   12
 0.0112826870902941   13    3   13    1
 0.03878774292687789   13    3   13    3
 -0.01208913662146076   13    4    4    1
 0.0002494172314922404   13    4    4    3
 -0.005685570280609466   13    4    7    2
 0.002354170807965961   13    4    8    7
 0.009193632452795628   13    4    9    4
 0.009298112443954629   13    4   10    7
 -0.01377160349035469   13    4   11    1
 -0.007451575683565127   13    4   11    3
 0.008996926034741032   13    4   11    9
 0.02607134889706501   13    4   13    4
 -0.01208913662146076   13    5    5    1
 0.0002494172314922393   13    5    5    3
 -0.005685570280609439   13    5    6    2
 0.002354170807965964   13    5    8    6
 0.009193632452795629   13    5    9    5
 0.009298112443954624   13    5   10    6
 -0.01377160349035468   13    5   12    1
 -0.007451575683565124   13    5   12    3
 0.008996926034741032   13    5   12    9
 0.02607134889706501   13    5   13    5
 0.005921023959552838   13    6    5    2
 0.005585957878945171   13    6    6    1
 0.002217583206153229   13    6    6    3
 -0.004433581510186136   13    6    8    5
 -0.004057143313001506   13    6    9    6
 0.004383331335415661   13    6   10    5
 -0.01419195960824077   13    6   12    2
 0.005288463589767592   13    6   12    8
 0.002481121177249376   13    6   12   10
 0.01617691807966223   13    6   13    6
 0.00592102395955278   13    7    4    2
 0.005585957878945097   13    7    7    1
 0.002217583206153177   13    7    7    3
 -0.004433581510186108   13    7    8    4
 -0.004057143313001506   13    7    9    7
 0.004383331335415673   13    7   10    4
 -0.01419195960824076   13    7   11    2
 0.005288463589767579   13    7   11    8
 0.002481121177249391   13    7   11   10
 0.01617691807966222   13    7   13    7
 -0.01885775322992074   13    8    2    1
 -0.01464580725517119   13    8    3    2
 -0.02340050560848052   13    8    6    5
 -0.0234005056084805   13    8    7    4
 0.01955024913783937   13    8    8    1
 -0.0200925013299118   13    8    8    3
 1.595973236354804e-15   13    8    8    8
 -0.006022624512786521   13    8    9    2
 -0.008449292680908022   13    8    9    8
 0.01602041744910782   13    8   10    1
 -0.008852385401700356   13    8   10    3
 0.02754022767328345   13    8   10    9
 0.01336629202304469   13    8   11    7
 0.01336629202304473   13    8   12    6
 -0.006478275922341418   13    8   13    2
 0.01647989354406051   13    8   13    8
 0.06377632391577055   13    9    1    1
 -0.007893272220937811   13    9    2    2
 -0.03826676756081433   13    9    3    1
 -0.001942489508638507   13    9    3    3
 0.03689544776724855   13    9    4    4
 0.03689544776724855   13    9    5    5
 0.01477464532247099   13    9    6    6
 0.01477464532247097   13    9    7    7
 -0.02866711030179503   13    9    8    2
 0.01369110700117119   13    9    8    8
 0.005327222864033018   13    9    9    1
 -0.01667312394859558   13    9    9    3
 0.008860350155158098   13    9    9    9
 -0.01873313686130315   13    9   10    2
 0.02907555314159926   13    9   10    8
 -0.008716251594808126   13    9   10   10
 0.0009297788002663616   13    9   11    4
 0.02639515228277258   13    9   11   11
 0.0009297788002663617   13    9   12    5
 0.02639515228277262   13    9   12   12
 -0.001893442008503418   13    9   13    1
 -0.01720135104172626   13    9   13    3
 0.03817758292023531   13    9   13    9
 0.05313895155722624   13   10    2    1
 0.1017280821770123   13   10    3    2
 0.06365921327326796   13   10    6    5
 0.06365921327326791   13   10    7    4
 -0.006836172658310289   13   10    8    1
 0.04456803195578778   13   10    8    3
 -0.00816623752947708   13   10    9    2
 0.0396801551928223   13   10    9    8
 0.007143735733440991   13   10   10    1
 0.05038736761019322   13   10   10    3
 -0.06303381484988073   13   10   10    9
 -0.01612067151817844   13   10   11    7
 -0.01612067151817858   13   10   12    6
 0.03471702575761556   13   10   13    2
 -0.005021598249353723   13   10   13    8
 0.06453490217642327   13   10   13   10
 -0.05677632463493244   13   11    4    1
 -0.01427933566363583   13   11    4    3
 -0.05270204064136545   13   11    7    2
 0.02253645446283523   13   11    8    7
 0.0189241144991074   13   11    9    4
 0.01154425268247131   13   11   10    7
 0.008391357878036536   13   11   11    1
 -0.003679568833818219   13   11   11    3
 0.00744003725500707   13   11   11    9
 0.01830246681744021   13   11   13    4
 0.05461798258465234   13   11   13   11
 -0.05677632463493246   13   12    5    1
 -0.01427933566363584   13   12    5    3
 -0.05270204064136547   13   12    6    2
 0.02253645446283531   13   12    8    6
 0.0189241144991074   13   12    9    5
 0.01154425268247127   13   12   10    6
 0.00839135787803654   13   12   12    1
 -0.003679568833818195   13   12   12    3
 0.007440037255007065   13   12   12    9
 0.01830246681744018   13   12   13    5
 0.05461798258465238   13   12   13   12
 0.472027089779927   13   13    1    1
 0.4325819528377698   13   13    2    2
 -0.02663188568062103   13   13    3    1
 0.4397689133702031   13   13    3    3
 0.4358898027151285   13   13    4    4
 0.4358898027151285   13   13    5    5
 0.4207704513304344   13   13    6    6
 0.4207704513304341   13   13    7    7
 -0.03676839244785833   13   13    8    2
 0.386501131622587   13   13    8    8
 0.00664039185957295   13   13    9    1
 -0.06562504050824274   13   13    9    3
 0.3706590913944747   13   13    9    9
 0.04165870138779389   13   13   10    2
 0.08666276538778604   13   13   10    8
 0.4079974240345797   13   13   10   10
 -0.06230257583145616   13   13   11    4
 0.3980322318713683   13   13   11   11
 -0.06230257583145615   13   13   12    5
 0.3980322318713684   13   13   12   12
 0.03953150587477697   13   13   13    1
 0.03391638086792511   13   13   13    3
 0.02236363975231284   13   13   13    9
 0.4028382374684906   13   13   13   13
 0.01903545200797031   14    1    5    2
 0.02110863753831586   14    1    6    1
 0.004917788562545948   14    1    6    3
 -0.01725489610722048   14    1    8    5
 -0.003857205879329985   14    1    9    6
 -0.004986123866858235   14    1   10    5
 -0.01542656921360053   14    1   12    2
 0.01313170876923243   14    1   12    8