 &FCI NORB=  26,NELEC=10,MS2=0,
  ORBSYM=1,1,1,1,1,1,1,1,1,1,1,1,1,1,1,1,1,1,1,1,1,1,1,1,1,1
  ISYM=1,
 &END
 0.5598346072372575    1    1    1    1
 0.1541100155790188    2    1    2    1
 0.4849584528562898    2    2    1    1
 0.4981519670004992    2    2    2    2
 -0.07808902736847464    3    1    1    1
 0.006777697268993001    3    1    2    2
 0.08263274276398822    3    1    3    1
 0.1095319426512666    3    2    2    1
 0.1289581017117334    3    2    3    2
 0.5031454979661818    3    3    1    1
 0.4919887124319023    3    3    2    2
 -0.01948517984080616    3    3    3    1
 0.5153620829175563    3    3    3    3
 0.07543500689348009    4    1    4    1
 0.05446357545954199    4    2    4    2
 0.002242819798275306    4    3    4    1
 0.02007399879761677    4    3    4    3
 0.4925099147280258    4    4    1    1
 0.456484002077063    4    4    2    2
 -0.03784507974783129    4    4    3    1
 0.4521330739388476    4    4    3    3
 0.4749537928474106    4    4    4    4
 0.07543500689348009    5    1    5    1
 0.05446357545954198    5    2    5    2
 0.002242819798275306    5    3    5    1
 0.02007399879761677    5    3    5    3
 0.01754140655726563    5    4    5    4
 0.4925099147280258    5    5    1    1
 0.4564840020770629    5    5    2    2
 -0.03784507974783129    5    5    3    1
 0.4521330739388476    5    5    3    3
 0.4398709797328793    5    5    4    4
 0.4749537928474106    5    5    5    5
 0.05245325748133115    6    1    5    2
 0.05197756419945071    6    1    6    1
 0.06931846545187439    6    2    5    1
 0.01679608153660653    6    2    5    3
 0.07496153805033867    6    2    6    2
 0.02327794415979127    6    3    5    2
 0.01812099348441829    6    3    6    1
 0.0230492292215582    6    3    6    3
 0.01550307837953138    6    4    6    4
 0.1576202608051129    6    5    2    1
 0.1068797415470594    6    5    3    2
 0.1830908910953278    6    5    6    5
 0.4818828578507892    6    6    1    1
 0.4681267536971652    6    6    2    2
 -0.01720988866919489    6    6    3    1
 0.4570472857207639    6    6    3    3
 0.4370106745580664    6    6    4    4
 0.4714765895771838    6    6    5    5
 0.4777410828146458    6    6    6    6
 0.05245325748133117    7    1    4    2
 0.05197756419945075    7    1    7    1
 0.06931846545187441    7    2    4    1
 0.01679608153660653    7    2    4    3
 0.07496153805033869    7    2    7    2
 0.02327794415979127    7    3    4    2
 0.01812099348441828    7    3    7    1
 0.0230492292215582    7    3    7    3
 0.157620260805113    7    4    2    1
 0.1068797415470594    7    4    3    2
 0.1520847343362651    7    4    6    5
 0.1830908910953279    7    4    7    4
 0.01550307837953139    7    5    6    4
 0.01550307837953139    7    5    7    5
 0.01723295750955874    7    6    5    4
 0.01842952883953706    7    6    7    6
 0.4818828578507893    7    7    1    1
 0.4681267536971652    7    7    2    2
 -0.01720988866919494    7    7    3    1
 0.4570472857207641    7    7    3    3
 0.471476589577184    7    7    4    4
 0.4370106745580665    7    7    5    5
 0.4408820251355719    7    7    6    6
 0.4777410828146461    7    7    7    7
 -0.06075893327386434    8    1    2    1
 0.008741161938704769    8    1    3    2
 -0.06512422431509447    8    1    6    5
 -0.06512422431509449    8    1    7    4
 0.07914944352798789    8    1    8    1
 -0.07386892264113001    8    2    1    1
 -0.01001690080811229    8    2    2    2
 0.06096295194245368    8    2    3    1
 -0.01197631618494176    8    2    3    3
 -0.05047158025055749    8    2    4    4
 -0.05047158025055747    8    2    5    5
 -0.03672405639516563    8    2    6    6
 -0.03672405639516566    8    2    7    7
 0.06090347411244913    8    2    8    2
 0.1340429934719435    8    3    2    1
 0.1030296356984498    8    3    3    2
 0.1291404886398318    8    3    6    5
 0.1291404886398318    8    3    7    4
 -0.05146077091537769    8    3    8    1
 0.1410998143347181    8    3    8    3
 -0.01855480095579705    8    4    4    2
 -0.02267563863088663    8    4    7    1
 0.006787159429031971    8    4    7    3
 0.02290060286302339    8    4    8    4
 -0.01855480095579705    8    5    5    2
 -0.02267563863088662    8    5    6    1
 0.006787159429031967    8    5    6    3
 0.02290060286302339    8    5    8    5
 -0.03017360328566431    8    6    5    1
 0.0119628863160701    8    6    5    3
 -0.01929535986441706    8    6    6    2
 0.02453692277680941    8    6    8    6
 -0.03017360328566433    8    7    4    1
 0.01196288631607009    8    7    4    3
 -0.01929535986441708    8    7    7    2
 0.02453692277680943    8    7    8    7
 0.526279848935984    8    8    1    1
 0.4753957894020114    8    8    2    2
 -0.05766675756973531    8    8    3    1
 0.4994896891302619    8    8    3    3
 0.4633181872290928    8    8    4    4
 0.4633181872290928    8    8    5    5
 0.4601759382769115    8    8    6    6
 0.4601759382769116    8    8    7    7
 -0.05080952823885861    8    8    8    2
 0.5221201393415906    8    8    8    8
 0.006030304334052381    9    1    2    1
 0.02332384200707045    9    1    3    2
 0.005028058183864354    9    1    6    5
 0.005028058183864354    9    1    7    4
 0.01829574734941286    9    1    8    1
 -0.0009185444440649788    9    1    8    3
 0.01556072297995553    9    1    9    1
 0.04353746081143405    9    2    1    1
 0.06877207585945712    9    2    2    2
 0.02236617253727127    9    2    3    1
 0.06291198226670977    9    2    3    3
 0.04511363127191154    9    2    4    4
 0.04511363127191155    9    2    5    5
 0.05193054116644487    9    2    6    6
 0.05193054116644489    9    2    7    7
 0.01292794153445203    9    2    8    2
 0.04125951021370698    9    2    8    8
 0.03980903128690656    9    2    9    2
 0.0750883217908431    9    3    2    1
 0.0535656133901003    9    3    3    2
 0.07085420344847353    9    3    6    5
 0.07085420344847357    9    3    7    4
 -0.0353166892734248    9    3    8    1
 0.07013614562610593    9    3    8    3
 0.01301625296667937    9    3    9    1
 0.07594911513363423    9    3    9    3
 0.00446447286647998    9    4    4    2
 0.002551251438025847    9    4    7    1
 0.006139837244585126    9    4    7    3
 0.002916758543883376    9    4    8    4
 0.00739850145870963    9    4    9    4
 0.004464472866479982    9    5    5    2
 0.002551251438025844    9    5    6    1
 0.00613983724458512    9    5    6    3
 0.002916758543883376    9    5    8    5
 0.007398501458709632    9    5    9    5
 0.0008719985373106078    9    6    5    1
 0.006332620837641    9    6    5    3
 0.005151901258802767    9    6    6    2
 0.002812851958749456    9    6    8    6
 0.01022872820145835    9    6    9    6
 0.0008719985373106161    9    7    4    1
 0.006332620837641011    9    7    4    3
 0.005151901258802787    9    7    7    2
 0.00281285195874946    9    7    8    7
 0.01022872820145835    9    7    9    7
 0.1153320374438945    9    8    1    1
 0.09094952598277205    9    8    2    2
 -0.02808283543951663    9    8    3    1
 0.1016278734147265    9    8    3    3
 0.08861105160909068    9    8    4    4
 0.0886110516090907    9    8    5    5
 0.08615835514519478    9    8    6    6
 0.08615835514519483    9    8    7    7
 -0.02757578679053134    9    8    8    2
 0.1081663375818517    9    8    8    8
 0.0325446461711686    9    8    9    2
 0.06833828949318015    9    8    9    8
 0.3880918774870915    9    9    1    1
 0.412095783495414    9    9    2    2
 0.01604761580401219    9    9    3    1
 0.4221992604447389    9    9    3    3
 0.366680724574059    9    9    4    4
 0.3666807245740589    9    9    5    5
 0.3795250407536608    9    9    6    6
 0.379525040753661    9    9    7    7
 0.01485396460879049    9    9    8    2
 0.4062471744093381    9    9    8    8
 0.04604796722659669    9    9    9    2
 0.05490892112345832    9    9    9    8
 0.3933894321495012    9    9    9    9
 -0.01769549780171455   10    1    4    1
 -0.004789248254064509   10    1    4    3
 -0.02135713714230987   10    1    7    2
 0.009400843353588637   10    1    8    7
 -0.005747882923378952   10    1    9    7
 0.02044015148661861   10    1   10    1
 -0.02603603360483487   10    2    4    2
 -0.02524138846484961   10    2    7    1
 -0.0102963832796344   10    2    7    3
 0.01007263399012901   10    2    8    4
 -0.007372942292415837   10    2    9    4
 0.02270093995360888   10    2   10    2
 -0.008532535768063124   10    3    4    1
 -0.007172109532703209   10    3    4    3
 -0.01203975022448954   10    3    7    2
 -0.002150219763990411   10    3    8    7
 -0.008771883390906659   10    3    9    7
 0.003579328283466748   10    3   10    1
 0.009692876126638529   10    3   10    3
 -0.0961011278839934   10    4    1    1
 -0.09887538974541471   10    4    2    2
 0.001423715627454076   10    4    3    1
 -0.09361311892476187   10    4    3    3
 -0.08470504147927013   10    4    4    4
 -0.07903481069861676   10    4    5    5
 -0.08603453061136665   10    4    6    6
 -0.09532236854224764   10    4    7    7
 0.01347785161984966   10    4    8    2
 -0.09756373711745486   10    4    8    8
 -0.03062025676573693   10    4    9    2
 -0.04543577153894545   10    4    9    8
 -0.07073364418562963   10    4    9    9
 0.07181311552573424   10    4   10    4
 -0.00283511539032669   10    5    5    4
 -0.00464391896544045   10    5    7    6
 0.008514323690785412   10    5   10    5
 -0.005965180034502943   10    6    6    4
 -0.005965180034502947   10    6    7    5
 0.007967023975065221   10    6   10    6
 -0.08266964645452181   10    7    2    1
 -0.05047865808792989   10    7    3    2
 -0.07797058129926514   10    7    6    5
 -0.08990094136827109   10    7    7    4
 0.04261162532372788   10    7    8    1
 -0.06814431646761575   10    7    8    3
 -0.007381255093905309   10    7    9    1
 -0.05906207149532568   10    7    9    3
 0.07745020241036629   10    7   10    7
 0.0115261727020489   10    8    4    2
 0.01383359413508085   10    8    7    1
 -0.002316454650207001   10    8    7    3
 -0.01191529116814064   10    8    8    4
 -0.004398163290451947   10    8    9    4
 -0.007066090194822494   10    8   10    2
 0.011598488899593   10    8   10    8
 -0.01693052831055417   10    9    4    2
 -0.01341676000779759   10    9    7    1
 -0.01573603922127581   10    9    7    3
 -0.004008724733876626   10    9    8    4
 -0.003967217238073468   10    9    9    4
 0.007387586952346998   10    9   10    2
 0.001240709917274584   10    9   10    8
 0.01379871621874619   10    9   10    9
 0.449478594108035   10   10    1    1
 0.4266918545878871   10   10    2    2
 -0.02551254035886233   10   10    3    1
 0.4214218928517049   10   10    3    3
 0.4385299534293019   10   10    4    4
 0.4099608665872957   10   10    5    5
 0.4098454755881028   10   10    6    6
 0.4379342277273954   10   10    7    7
 -0.03939782093993579   10   10    8    2
 0.4295083055684282   10   10    8    8
 0.04600364633001226   10   10    9    2
 0.08241719898381773   10   10    9    8
 0.3550014334071224   10   10    9    9
 -0.07952231993440519   10   10   10    4
 0.4246902421963524   10   10   10   10
 -0.01769549780171455   11    1    5    1
 -0.004789248254064509   11    1    5    3
 -0.02135713714230986   11    1    6    2
 0.009400843353588633   11    1    8    6
 -0.005747882923378952   11    1    9    6
 0.02044015148661861   11    1   11    1
 -0.02603603360483487   11    2    5    2
 -0.0252413884648496   11    2    6    1
 -0.0102963832796344   11    2    6    3
 0.01007263399012901   11    2    8    5
 -0.007372942292415838   11    2    9    5
 0.02270093995360888   11    2   11    2
 -0.008532535768063124   11    3    5    1
 -0.00717210953270321   11    3    5    3
 -0.01203975022448954   11    3    6    2
 -0.002150219763990406   11    3    8    6
 -0.008771883390906659   11    3    9    6
 0.003579328283466749   11    3   11    1
 0.009692876126638529   11    3   11    3
 -0.00283511539032669   11    4    5    4
 -0.004643918965440451   11    4    7    6
 0.008514323690785412   11    4   10    5
 0.008514323690785412   11    4   11    4
 -0.0961011278839934   11    5    1    1
 -0.09887538974541472   11    5    2    2
 0.001423715627454079   11    5    3    1
 -0.09361311892476187   11    5    3    3
 -0.07903481069861673   11    5    4    4
 -0.08470504147927013   11    5    5    5
 -0.09532236854224754   11    5    6    6
 -0.08603453061136672   11    5    7    7
 0.01347785161984965   11    5    8    2
 -0.09756373711745484   11    5    8    8
 -0.03062025676573692   11    5    9    2
 -0.04543577153894546   11    5    9    8
 -0.07073364418562963   11    5    9    9
 0.05478446814416345   11    5   10    4
 -0.07568156221214782   11    5   10   10
 0.07181311552573429   11    5   11    5
 -0.08266964645452171   11    6    2    1
 -0.05047865808792981   11    6    3    2
 -0.08990094136827094   11    6    6    5
 -0.07797058129926504   11    6    7    4
 0.04261162532372784   11    6    8    1
 -0.06814431646761566   11    6    8    3
 -0.00738125509390531   11    6    9    1
 -0.05906207149532565   11    6    9    3
 0.06151615446023578   11    6   10    7
 0.07745020241036622   11    6   11    6
 -0.00596518003450295   11    7    6    4
 -0.005965180034502956   11    7    7    5
 0.007967023975065225   11    7   10    6
 0.007967023975065228   11    7   11    7
 0.0115261727020489   11    8    5    2
 0.01383359413508084   11    8    6    1
 -0.002316454650206995   11    8    6    3
 -0.01191529116814064   11    8    8    5
 -0.004398163290451946   11    8    9    5
 -0.007066090194822498   11    8   11    2
 0.01159848889959301   11    8   11    8
 -0.01693052831055417   11    9    5    2
 -0.01341676000779759   11    9    6    1
 -0.01573603922127581   11    9    6    3
 -0.004008724733876626   11    9    8    5
 -0.003967217238073472   11    9    9    5
 0.007387586952347003   11    9   11    2
 0.001240709917274576   11    9   11    8
 0.0137987162187462   11    9   11    9
 0.01428454342100303   11   10    5    4
 0.01404437606964624   11   10    7    6
 -0.001920378861128727   11   10   10    5
 -0.001920378861128728   11   10   11    4
 0.01547139465516956   11   10   11   10
 0.4494785941080349   11   11    1    1
 0.4266918545878871   11   11    2    2
 -0.02551254035886232   11   11    3    1
 0.421421892851705   11   11    3    3
 0.4099608665872957   11   11    4    4
 0.4385299534293018   11   11    5    5
 0.4379342277273954   11   11    6    6
 0.4098454755881029   11   11    7    7
 -0.03939782093993578   11   11    8    2
 0.4295083055684281   11   11    8    8
 0.04600364633001223   11   11    9    2
 0.082417198983818   11   11    9    8
 0.3550014334071219   11   11    9    9
 -0.07568156221214771   11   11   10    4
 0.3937474528860131   11   11   10   10
 -0.07952231993440523   11   11   11    5
 0.4246902421963524   11   11   11   11
 0.04228079308462188   12    1    1    1
 0.05384062340319244   12    1    2    2
 0.009675447983916402   12    1    3    1
 0.04710417658531427   12    1    3    3
 0.04038860524331003   12    1    4    4
 0.04038860524331003   12    1    5    5
 0.04523355750552623   12    1    6    6
 0.04523355750552627   12    1    7    7
 0.000298295665481558   12    1    8    2
 0.04015352601371406   12    1    8    8
 0.02537456645700094   12    1    9    2
 0.02487289958773322   12    1    9    8
 0.03503275275151222   12    1    9    9
 -0.02979476063466508   12    1   10    4
 0.03984177115393498   12    1   10   10
 -0.02979476063466507   12    1   11    5
 0.03984177115393497   12    1   11   11
 0.01963563945382341   12    1   12    1
 0.05765935263363408   12    2    2    1
 0.0469154159864751   12    2    3    2
 0.05526931066797843   12    2    6    5
 0.05526931066797845   12    2    7    4
 -0.01876475483475358   12    2    8    1
 0.04599658715660957   12    2    8    3
 0.01711559356819439   12    2    9    1
 0.0579321685043386   12    2    9    3
 -0.05034467727964018   12    2   10    7
 -0.05034467727964014   12    2   11    6
 0.05086357883013414   12    2   12    2
 0.08225702107335015   12    3    1    1
 0.08634298665837931   12    3    2    2
 0.0005337977528433847   12    3    3    1
 0.08824271676858748   12    3    3    3
 0.07027369584614644   12    3    4    4
 0.07027369584614644   12    3    5    5
 0.07307899694509666   12    3    6    6
 0.07307899694509674   12    3    7    7
 -0.004705128682935952   12    3    8    2
 0.07616315993817828   12    3    8    8
 0.04264174453140936   12    3    9    2
 0.05339995060155889   12    3    9    8
 0.05659383991666005   12    3    9    9
 -0.04212671197441271   12    3   10    4
 0.06858764411043564   12    3   10   10
 -0.04212671197441271   12    3   11    5
 0.06858764411043568   12    3   11   11
 0.02920742926054278   12    3   12    1
 0.05463116843881489   12    3   12    3
 0.005480264606377346   12    4    4    1
 0.004108470866949626   12    4    4    3
 0.008553906922882347   12    4    7    2
 -0.002591316566328597   12    4    8    7
 0.009591626959524239   12    4    9    7
 -0.01240828273184559   12    4   10    1
 -0.007265055886564563   12    4   10    3
 0.01248813837616812   12    4   12    4
 0.005480264606377346   12    5    5    1
 0.004108470866949629   12    5    5    3
 0.008553906922882333   12    5    6    2
 -0.002591316566328597   12    5    8    6
 0.009591626959524242   12    5    9    6
 -0.01240828273184559   12    5   11    1
 -0.00726505588656456   12    5   11    3
 0.01248813837616811   12    5   12    5
 0.0106862104804647   12    6    5    2
 0.009975936093472925   12    6    6    1
 0.004465263513593644   12    6    6    3
 -0.004186194563207182   12    6    8    5
 0.008975181975707094   12    6    9    5
 -0.01615525699577906   12    6   11    2
 0.0005619571484693914   12    6   11    8
 -0.002886024356938897   12    6   11    9
 0.01585319206454491   12    6   12    6
 0.01068621048046473   12    7    4    2
 0.009975936093472956   12    7    7    1
 0.004465263513593665   12    7    7    3
 -0.004186194563207186   12    7    8    4
 0.00897518197570709   12    7    9    4
 -0.01615525699577907   12    7   10    2
 0.0005619571484694017   12    7   10    8
 -0.002886024356938918   12    7   10    9
 0.01585319206454492   12    7   12    7
 5.400040739546815e-05   12    8    2    1
 -0.001811464060654831   12    8    3    2
 -0.002895297590592424   12    8    6    5
 -0.002895297590592398   12    8    7    4
 -0.005277127964067228   12    8    8    1
 -0.001180396119816155   12    8    8    3
 0.009124405275483072   12    8    9    1
 0.0306494147236226   12    8    9    3
 -0.01246513476513902   12    8   10    7
 -0.01246513476513903   12    8   11    6
 0.02339713306362015   12    8   12    2
 0.02613651994060162   12    8   12    8
 0.1342367406671632   12    9    2    1
 0.1350739343662103   12    9    3    2
 0.1338070404721454   12    9    6    5
 0.1338070404721454   12    9    7    4
 -0.01518731103466178   12    9    8    1
 0.1364787955902257   12    9    8    3
 0.01060712487175037   12    9    9    1
 0.05430598194725315   12    9    9    3
 -0.05993071032466902   12    9   10    7
 -0.0599307103246689   12    9   11    6
 0.04247267105880202   12    9   12    2
 -0.01585398575078962   12    9   12    8
 0.1781216525023094   12    9   12    9
 -0.03600006176839016   12   10    4    1
 -0.0129390074518607   12   10    4    3
 -0.04142975671281426   12   10    7    2
 0.005616248236017246   12   10    8    7
 -0.00261859514403998   12   10    9    7
 0.008955256088367983   12   10   10    1
 0.007882157243440352   12   10   10    3
 -0.002973447422651264   12   10   12    4
 0.02883678546630544   12   10   12   10
 -0.03600006176839018   12   11    5    1
 -0.0129390074518607   12   11    5    3
 -0.04142975671281426   12   11    6    2
 0.005616248236017236   12   11    8    6
 -0.002618595144039958   12   11    9    6
 0.008955256088367976   12   11   11    1
 0.00788215724344035   12   11   11    3
 -0.002973447422651272   12   11   12    5
 0.02883678546630544   12   11   12   11
 0.3758632295284082   12   12    1    1
 0.4070405069002655   12   12    2    2
 0.02490087580429747   12   12    3    1
 0.4075239566115499   12   12    3    3
 0.3637982264720775   12   12    4    4
 0.3637982264720774   12   12    5    5
 0.3775181160603578   12   12    6    6
 0.377518116060358   12   12    7    7
 0.0176224720481675   12   12    8    2
 0.3861502337719888   12   12    8    8
 0.04547645400597364   12   12    9    2
 0.04559500585897368   12   12    9    8
 0.3791549700640062   12   12    9    9
 -0.06322521227710201   12   12   10    4
 0.3517730985527291   12   12   10   10
 -0.06322521227710198   12   12   11    5
 0.3517730985527291   12   12   11   11
 0.03358225704602785   12   12   12    1
 0.0512560414753177   12   12   12    3
 0.3729156243663176   12   12   12   12
 0.01942071444078136   13    1    5    2
 0.02081135794235758   13    1    6    1
 0.001955300461579196   13    1    6    3
 -0.01390153585847699   13    1    8    5
 0.003411648537165512   13    1    9    5
 -0.01848840105479369   13    1   11    2
 0.009630951026380464   13    1   11    8
 -0.001849108325956112   13    1   11    9
 0.01269879150160609   13    1   12    6
 0.01793739134356182   13    1   13    1
 0.01886135989880492   13    2    5    1
 0.001747272537434906   13    2    5    3
 0.01932222857085123   13    2    6    2
 -0.01075567454750564   13    2    8    6
 0.00863046651026946   13    2    9    6
 -0.01815824873052708   13    2   11    1
 -0.006959619996134313   13    2   11    3
 0.01423250758025576   13    2   12    5
 -0.007972603813814087   13    2   12   11
 0.01969512024141273   13    2   13    2
 -0.0007723154996261391   13    3    5    2
 -0.002589647290135761   13    3    6    1
 0.003921511515744668   13    3    6    3
 0.004691206173625842   13    3    8    5
 0.007806288888011824   13    3    9    5
 -0.005541775362296304   13    3   11    2
 -0.006015973958781278   13    3   11    8
 -0.002660356847283085   13    3   11    9
 0.009034482906375405   13    3   12    6
 0.001926667882943322   13    3   13    1
 0.008928719746855713   13    3   13    3
 0.004090706563448816   13    4    6    4
 0.00409070656344882   13    4    7    5
 -0.007145103325070028   13    4   10    6
 -0.00714510332507003   13    4   11    7
 0.006807852521468238   13    4   13    4
 0.06054482473486477   13    5    2    1
 0.02879738897097577   13    5    3    2
 0.06482929297821095   13    5    6    5
 0.05664787985131329   13    5    7    4
 -0.04038558305997861   13    5    8    1
 0.04989067475916376   13    5    8    3
 0.004170010571860807   13    5    9    1
 0.04907353033728581   13    5    9    3
 -0.05086010253625978   13    5   10    7
 -0.06515030918639983   13    5   11    6
 0.04159827407651943   13    5   12    2
 0.01314281397511926   13    5   12    8
 0.03635220176665083   13    5   12    9
 0.0576978139673732   13    5   13    5
 0.1128038013949464   13    6    1    1
 0.1000413839665345   13    6    2    2
 -0.01590145829035038   13    6    3    1
 0.09816744169604562   13    6    3    3
 0.08974590239722691   13    6    4    4
 0.09699712141872253   13    6    5    5
 0.100205367574499   13    6    6    6
 0.09187150138186288   13    6    7    7
 -0.02490714790499345   13    6    8    2
 0.1075868523612381   13    6    8    8
 0.03073728083917948   13    6    9    2
 0.05284236378917658   13    6    9    8
 0.06667755567319168   13    6    9    9
 -0.05435337314043938   13    6   10    4
 0.08516599254263761   13    6   10   10
 -0.06956666988725088   13    6   11    5
 0.09128201218798923   13    6   11   11
 0.03015584020307607   13    6   12    1
 0.04637926796998702   13    6   12    3
 0.05818053155638547   13    6   12   12
 0.07479381085135534   13    6   13    6
 0.003625609510747777   13    7    5    4
 0.004166933096318115   13    7    7    6
 -0.007606648373405726   13    7   10    5
 -0.007606648373405726   13    7   11    4
 0.003058009822675799   13    7   11   10
 0.008091449379064893   13    7   13    7
 -0.02361392002841128   13    8    5    1
 0.003045620815837719   13    8    5    3
 -0.02025891723498843   13    8    6    2
 0.01357556282530441   13    8    8    6
 0.005659902933965924   13    8    9    6
 0.01009890742302291   13    8   11    1
 -0.003951351685169523   13    8   11    3
 8.828489169408227e-05   13    8   12    5
 0.009566670702521689   13    8   12   11
 -0.00684000214486155   13    8   13    2
 0.0157009700773834   13    8   13    8
 0.01524518656465674   13    9    5    1
 0.0139530359456463   13    9    5    3
 0.02317087202682668   13    9    6    2
 0.005514022437898128   13    9    8    6
 0.001249223128873293   13    9    9    6
 -0.001956614958365278   13    9   11    1
 -0.005521870590184932   13    9   11    3
 -0.0004235855964184352   13    9   12    5
 -0.01995109716103945   13    9   12   11
 0.0001360787210718267   13    9   13    2
 -0.002812886543515789   13    9   13    8
 0.01887836796222213   13    9   13    9
 -0.01117923295335566   13   10    6    4
 -0.01117923295335566   13   10    7    5
 0.004403647581207619   13   10   10    6
 0.004403647581207627   13   10   11    7
 -0.002890330566625487   13   10   13    4
 0.01105839888713529   13   10   13   10
 -0.132349381653996   13   11    2    1
 -0.09125414864531993   13   11    3    2
 -0.1530255169450058   13   11    6    5
 -0.1306670510382946   13   11    7    4
 0.05471235118326058   13   11    8    1
 -0.1128588748797617   13   11    8    3
 -0.003288190457242776   13   11    9    1
 -0.06268261341930792   13   11    9    3
 0.06994744384937127   13   11   10    7
 0.07875473901178638   13   11   11    6
 -0.04815671819563321   13   11   12    2
 0.002441946863475128   13   11   12    8
 -0.1229477455039032   13   11   12    9
 -0.05695640562053115   13   11   13    5
 0.1423366340215091   13   11   13   11
 0.03338131723662749   13   12    5    2
 0.03017459160439514   13   12    6    1
 0.02051710148368853   13   12    6    3
 -0.003903890092224654   13   12    8    5
 0.001173611595809537   13   12    9    5
 -0.01207154205485672   13   12   11    2
 0.005514038035585363   13   12   11    8
 -0.01818006856451163   13   12   11    9
 0.001001799515829701   13   12   12    6
 0.006326073208236491   13   12   13    1
 -0.002109481483891601   13   12   13    3
 0.03121049065255756   13   12   13   12
 0.4219516144301752   13   13    1    1
 0.4088137505504553   13   13    2    2
 -0.01651327656135261   13   13    3    1
 0.4032526162289767   13   13    3    3
 0.3878848392904327   13   13    4    4
 0.4130713300712083   13   13    5    5
 0.4181101205846433   13   13    6    6
 0.3912454079563113   13   13    7    7
 -0.03003577871683017   13   13    8    2
 0.4097615246035557   13   13    8    8
 0.03837336592324855   13   13    9    2
 0.06947108801088868   13   13    9    8
 0.3495411435476908   13   13    9    9
 -0.07012532874840056   13   13   10    4
 0.3729909833301449   13   13   10   10
 -0.07424447235130043   13   13   11    5
 0.3998491671384845   13   13   11   11
 0.03423202717711284   13   13   12    1
 0.05666306801630822   13   13   12    3
 0.3470178346346504   13   13   12   12
 0.0779119014977096   13   13   13    6
 0.3867876404418923   13   13   13   13
 0.01942071444078132   14    1    4    2
 0.02081135794235756   14    1    7    1
 0.001955300461579181   14    1    7    3
 -0.01390153585847698   14    1    8    4
 0.003411648537165505   14    1    9    4
 -0.01848840105479367   14    1   10    2
 0.009630951026380443   14    1   10    8
 -0.001849108325956088   14    1   10    9
 0.0126987915016061   14    1   12    7
 0.01793739134356179   14    1   14    1
 0.01886135989880487   14    2    4    1
 0.00174727253743489   14    2    4    3
 0.01932222857085119   14    2    7    2
 -0.01075567454750563   14    2    8    7
 0.00863046651026945   14    2    9    7
 -0.01815824873052706   14    2   10    1
 -0.006959619996134302   14    2   10    3
 0.01423250758025576   14    2   12    4
 -0.007972603813814061   14    2   12   10
 0.0196951202414127   14    2   14    2
 -0.0007723154996261599   14    3    4    2
 -0.002589647290135777   14    3    7    1
 0.003921511515744658   14    3    7    3
 0.004691206173625841   14    3    8    4
 0.00780628888801182   14    3    9    4
 -0.005541775362296292   14    3   10    2
 -0.006015973958781285   14    3   10    8
 -0.002660356847283067   14    3   10    9
 0.009034482906375402   14    3   12    7
 0.001926667882943318   14    3   14    1
 0.008928719746855704   14    3   14    3
 0.06054482473486467   14    4    2    1
 0.02879738897097569   14    4    3    2
 0.05664787985131319   14    4    6    5
 0.06482929297821086   14    4    7    4
 -0.04038558305997855   14    4    8    1
 0.0498906747591637   14    4    8    3
 0.004170010571860786   14    4    9    1
 0.04907353033728572   14    4    9    3
 -0.06515030918639976   14    4   10    7
 -0.05086010253625969   14    4   11    6
 0.04159827407651939   14    4   12    2
 0.01314281397511922   14    4   12    8
 0.03635220176665076   14    4   12    9
 0.04408210892443665   14    4   13    5
 -0.05117574448728006   14    4   13   11
 0.05769781396737306   14    4   14    4
 0.004090706563448805   14    5    6    4
 0.004090706563448811   14    5    7    5
 -0.007145103325070022   14    5   10    6
 -0.007145103325070024   14    5   11    7
 0.006807852521468235   14    5   13    4
 -0.002890330566625478   14    5   13   10
 0.006807852521468231   14    5   14    5
 0.003625609510747757   14    6    5    4
 0.004166933096318093   14    6    7    6
 -0.007606648373405718   14    6   10    5
 -0.007606648373405718   14    6   11    4
 0.003058009822675777   14    6   11   10
 0.008091449379064888   14    6   13    7
 0.008091449379064884   14    6   14    6