 &FCI NORB=  26,NELEC=10,MS2=0,
  ORBSYM=1,1,1,1,1,1,1,1,1,1,1,1,1,1,1,1,1,1,1,1,1,1,1,1,1,1
  ISYM=1,
 &END
 0.4710066781223205    1    1    1    1
 0.22110463939774    2    1    2    1
 0.4626663132371779    2    2    1    1
 0.4687229798305561    2    2    2    2
 -0.02893569514122168    3    1    1    1
 0.004118287251538164    3    1    2    2
 0.07761489838846175    3    1    3    1
 0.07266882933726355    3    2    2    1
 0.07767442893511259    3    2    3    2
 0.4527250214463877    3    3    1    1
 0.4478679763863088    3    3    2    2
 -0.01716068795686483    3    3    3    1
 0.4614675231176952    3    3    3    3
 0.06848791925396989    4    1    4    1
 0.06131704695729021    4    2    4    2
 0.0009895324582819859    4    3    4    1
 0.01832689635015806    4    3    4    3
 0.4392659958427584    4    4    1    1
 0.435302221265493    4    4    2    2
 -0.01802385791395761    4    4    3    1
 0.414370715878366    4    4    3    3
 0.4361495862625757    4    4    4    4
 0.06848791925396989    5    1    5    1
 0.06131704695729021    5    2    5    2
 0.0009895324582819857    5    3    5    1
 0.01832689635015807    5    3    5    3
 0.01623332717209803    5    4    5    4
 0.4392659958427584    5    5    1    1
 0.435302221265493    5    5    2    2
 -0.01802385791395761    5    5    3    1
 0.414370715878366    5    5    3    3
 0.4036829319183797    5    5    4    4
 0.4361495862625757    5    5    5    5
 0.06116874475810386    6    1    5    2
 0.0612440748155761    6    1    6    1
 0.06949766398058844    6    2    5    1
 0.006909343266506024    6    2    5    3
 0.07264084872201536    6    2    6    2
 0.01183637262061865    6    3    5    2
 0.01001676534459454    6    3    6    1
 0.01690341554996605    6    3    6    3
 0.01613102083795765    6    4    6    4
 0.2055452842965474    6    5    2    1
 0.06373492495386018    6    5    3    2
 0.2145448027874103    6    5    6    5
 0.4439520138206108    6    6    1    1
 0.4444158264278463    6    6    2    2
 -0.008735089888816685    6    6    3    1
 0.4182691582476422    6    6    3    3
 0.4082921153385485    6    6    4    4
 0.4418514267753165    6    6    5    5
 0.4500284866304226    6    6    6    6
 0.0611687447581038    7    1    4    2
 0.06124407481557598    7    1    7    1
 0.06949766398058839    7    2    4    1
 0.006909343266506018    7    2    4    3
 0.07264084872201526    7    2    7    2
 0.01183637262061865    7    3    4    2
 0.01001676534459453    7    3    7    1
 0.01690341554996603    7    3    7    3
 0.2055452842965472    7    4    2    1
 0.06373492495386014    7    4    3    2
 0.1822827611114948    7    4    6    5
 0.2145448027874099    7    4    7    4
 0.01613102083795764    7    5    6    4
 0.01613102083795763    7    5    7    5
 0.01677965571838405    7    6    5    4
 0.01766882629559274    7    6    7    6
 0.4439520138206103    7    7    1    1
 0.4444158264278457    7    7    2    2
 -0.008735089888816668    7    7    3    1
 0.4182691582476417    7    7    3    3
 0.441851426775316    7    7    4    4
 0.4082921153385479    7    7    5    5
 0.4146908340392366    7    7    6    6
 0.4500284866304216    7    7    7    7
 -0.02798906095504272    8    1    2    1
 0.04902069183041763    8    1    3    2
 -0.02920547091977913    8    1    6    5
 -0.02920547091977907    8    1    7    4
 0.06687241166219481    8    1    8    1
 -0.0410544663626885    8    2    1    1
 -0.01219378550816861    8    2    2    2
 0.07086008907362425    8    2    3    1
 -0.01868064249847477    8    2    3    3
 -0.03289791431871485    8    2    4    4
 -0.03289791431871485    8    2    5    5
 -0.02631434549918529    8    2    6    6
 -0.02631434549918522    8    2    7    7
 0.07169364580429605    8    2    8    2
 0.1957092213189656    8    3    2    1
 0.06552218102939132    8    3    3    2
 0.1732135045874977    8    3    6    5
 0.1732135045874976    8    3    7    4
 -0.0254506355855493    8    3    8    1
 0.1956207630902754    8    3    8    3
 -0.00985122728397961    8    4    4    2
 -0.01176150551861679    8    4    7    1
 0.01386672954996581    8    4    7    3
 0.01865944680400263    8    4    8    4
 -0.009851227283979611    8    5    5    2
 -0.01176150551861681    8    5    6    1
 0.01386672954996583    8    5    6    3
 0.01865944680400263    8    5    8    5
 -0.01420652565135778    8    6    5    1
 0.01633738798301098    8    6    5    3
 -0.009722851364423484    8    6    6    2
 0.01989625766638524    8    6    8    6
 -0.01420652565135776    8    7    4    1
 0.01633738798301097    8    7    4    3
 -0.009722851364423446    8    7    7    2
 0.0198962576663852    8    7    8    7
 0.4686188017101916    8    8    1    1
 0.459633757555433    8    8    2    2
 -0.03110885691771411    8    8    3    1
 0.4684163980457872    8    8    3    3
 0.4274347948625103    8    8    4    4
 0.4274347948625103    8    8    5    5
 0.4319914617414498    8    8    6    6
 0.4319914617414491    8    8    7    7
 -0.03835179839070239    8    8    8    2
 0.4904986481747727    8    8    8    8
 -0.0200789310767271    9    1    4    1
 -0.005537315655693163    9    1    4    3
 -0.0233780986264139    9    1    7    2
 0.003221007990904418    9    1    8    7
 0.02165456155015606    9    1    9    1
 -0.02720605214955913    9    2    4    2
 -0.02711382771968368    9    2    7    1
 -0.005818727487696683    9    2    7    3
 0.004453862545412409    9    2    8    4
 0.0227825175375952    9    2    9    2
 -0.01092054033410529    9    3    4    1
 -0.003242548775983608    9    3    4    3
 -0.01116821087365643    9    3    7    2
 -0.003017955207375436    9    3    8    7
 0.001963322010216189    9    3    9    1
 0.01036315856410274    9    3    9    3
 -0.08969522204844188    9    4    1    1
 -0.09664627741995087    9    4    2    2
 -0.008652057334681816    9    4    3    1
 -0.07826635998643235    9    4    3    3
 -0.08386916420444904    9    4    4    4
 -0.07602428506717626    9    4    5    5
 -0.08224710054227324    9    4    6    6
 -0.09219902094840829    9    4    7    7
 0.004568721317793381    9    4    8    2
 -0.08968404432849457    9    4    8    8
 0.07037693588453395    9    4    9    4
 -0.003922439568636376    9    5    5    4
 -0.004975960203067681    9    5    7    6
 0.008032322374986066    9    5    9    5
 -0.00572251770291591    9    6    6    4
 -0.00572251770291589    9    6    7    5
 0.007757831536744967    9    6    9    6
 -0.09780275457476618    9    7    2    1
 -0.02780491501808397    9    7    3    2
 -0.08430081517165891    9    7    6    5
 -0.09574585057749052    9    7    7    4
 0.01822120492126626    9    7    8    1
 -0.08222314075745552    9    7    8    3
 0.07693796951570547    9    7    9    7
 0.004712562227380902    9    8    4    2
 0.005567142203283141    9    8    7    1
 -0.005396732051421499    9    8    7    3
 -0.007728868988502614    9    8    8    4
 -0.002481502002043382    9    8    9    2
 0.008547213893695331    9    8    9    8
 0.4080692963632954    9    9    1    1
 0.4048102894520858    9    9    2    2
 -0.01538842331743591    9    9    3    1
 0.389081084764182    9    9    3    3
 0.4053126902596113    9    9    4    4
 0.3794536752455482    9    9    5    5
 0.3834897206946269    9    9    6    6
 0.4097059688894903    9    9    7    7
 -0.02779012049090362    9    9    8    2
 0.4001234539603636    9    9    8    8
 -0.07704713782803134    9    9    9    4
 0.3932615666485044    9    9    9    9
 -0.02007893107672709   10    1    5    1
 -0.005537315655693158   10    1    5    3
 -0.02337809862641395   10    1    6    2
 0.003221007990904436   10    1    8    6
 0.02165456155015607   10    1   10    1
 -0.02720605214955913   10    2    5    2
 -0.02711382771968373   10    2    6    1
 -0.005818727487696686   10    2    6    3
 0.004453862545412414   10    2    8    5
 0.0227825175375952   10    2   10    2
 -0.01092054033410528   10    3    5    1
 -0.003242548775983605   10    3    5    3
 -0.01116821087365643   10    3    6    2
 -0.003017955207375452   10    3    8    6
 0.00196332201021618   10    3   10    1
 0.01036315856410273   10    3   10    3
 -0.003922439568636375   10    4    5    4
 -0.00497596020306768   10    4    7    6
 0.008032322374986066   10    4    9    5
 0.008032322374986066   10    4   10    4
 -0.08969522204844188   10    5    1    1
 -0.09664627741995084   10    5    2    2
 -0.008652057334681803   10    5    3    1
 -0.0782663599864323   10    5    3    3
 -0.07602428506717622   10    5    4    4
 -0.08386916420444898   10    5    5    5
 -0.09219902094840861   10    5    6    6
 -0.0822471005422729   10    5    7    7
 0.004568721317793396   10    5    8    2
 -0.08968404432849449   10    5    8    8
 0.05431229113456178   10    5    9    4
 -0.0716304907788454   10    5    9    9
 0.07037693588453396   10    5   10    5
 -0.09780275457476661   10    6    2    1
 -0.0278049150180841   10    6    3    2
 -0.09574585057749116   10    6    6    5
 -0.0843008151716591   10    6    7    4
 0.01822120492126632   10    6    8    1
 -0.08222314075745585   10    6    8    3
 0.06142230644221573   10    6    9    7
 0.07693796951570589   10    6   10    6
 -0.005722517702915876   10    7    6    4
 -0.005722517702915856   10    7    7    5
 0.007757831536744955   10    7    9    6
 0.007757831536744943   10    7   10    7
 0.004712562227380913   10    8    5    2
 0.005567142203283161   10    8    6    1
 -0.005396732051421513   10    8    6    3
 -0.007728868988502614   10    8    8    5
 -0.002481502002043388   10    8   10    2
 0.008547213893695331   10    8   10    8
 0.01292950750703149   10    9    5    4
 0.01310812409743188   10    9    7    6
 -0.0027083235245929   10    9    9    5
 -0.002708323524592899   10    9   10    4
 0.0136274963335071   10    9   10    9
 0.4080692963632955   10   10    1    1
 0.4048102894520857   10   10    2    2
 -0.01538842331743591   10   10    3    1
 0.389081084764182   10   10    3    3
 0.3794536752455483   10   10    4    4
 0.4053126902596113   10   10    5    5
 0.4097059688894907   10   10    6    6
 0.3834897206946266   10   10    7    7
 -0.02779012049090365   10   10    8    2
 0.4001234539603636   10   10    8    8
 -0.07163049077884541   10   10    9    4
 0.36600657398149   10   10    9    9
 -0.07704713782803127   10   10   10    5
 0.3932615666485044   10   10   10   10
 0.0353082195308329   11    1    2    1
 0.02606435668191181   11    1    3    2
 0.03084999629193886   11    1    6    5
 0.0308499962919388   11    1    7    4
 0.01084443374027174   11    1    8    1
 0.02587543797605936   11    1    8    3
 -0.02738195767984467   11    1    9    7
 -0.02738195767984471   11    1   10    6
 0.02327347231855299   11    1   11    1
 0.05299873112177583   11    2    1    1
 0.0628112525715894   11    2    2    2
 0.02040070265959477   11    2    3    1
 0.05153126745034441   11    2    3    3
 0.04833074869188995   11    2    4    4
 0.04833074869188995   11    2    5    5
 0.05254368528972113   11    2    6    6
 0.05254368528972094   11    2    7    7
 0.01426807149053357   11    2    8    2
 0.04768159123410223   11    2    8    8
 -0.03450598118714425   11    2    9    4
 0.04703006031299544   11    2    9    9
 -0.03450598118714423   11    2   10    5
 0.04703006031299541   11    2   10   10
 0.03655993686790622   11    2   11    2
 0.0690612862123466   11    3    2    1
 0.02199440556950701   11    3    3    2
 0.05874460516221357   11    3    6    5
 0.05874460516221345   11    3    7    4
 -0.01146874644876495   11    3    8    1
 0.06434974290492436   11    3    8    3
 -0.04847138819767676   11    3    9    7
 -0.04847138819767689   11    3   10    6
 0.02901386180395975   11    3   11    1
 0.05549893907869789   11    3   11    3
 0.007486332722937995   11    4    4    2
 0.007047026697708399   11    4    7    1
 0.004474997400955837   11    4    7    3
 0.001616343123910236   11    4    8    4
 -0.01104238572650347   11    4    9    2
 -0.004313901704607908   11    4    9    8
 0.01011778754876751   11    4   11    4
 0.007486332722937993   11    5    5    2
 0.007047026697708425   11    5    6    1
 0.004474997400955857   11    5    6    3
 0.001616343123910237   11    5    8    5
 -0.01104238572650347   11    5   10    2
 -0.004313901704607908   11    5   10    8
 0.01011778754876751   11    5   11    5
 0.006228298466479886   11    6    5    1
 0.004723941570186476   11    6    5    3
 0.008021571880100713   11    6    6    2
 0.002030945142270923   11    6    8    6
 -0.01078834646306493   11    6   10    1
 -0.007210257802118529   11    6   10    3
 0.01185546765549914   11    6   11    6
 0.006228298466479814   11    7    4    1
 0.004723941570186445   11    7    4    3
 0.0080215718801006   11    7    7    2
 0.002030945142270894   11    7    8    7
 -0.01078834646306492   11    7    9    1
 -0.007210257802118513   11    7    9    3
 0.01185546765549912   11    7   11    7
 0.08042773490480377   11    8    1    1
 0.07907078586197448   11    8    2    2
 -0.00776443284067622   11    8    3    1
 0.07918574682268394   11    8    3    3
 0.06712087143459085   11    8    4    4
 0.06712087143459086   11    8    5    5
 0.06912365879970875   11    8    6    6
 0.0691236587997085   11    8    7    7
 -0.01234211670743876   11    8    8    2
 0.08509759432509882   11    8    8    8
 -0.03932120022843883   11    8    9    4
 0.06491456597774284   11    8    9    9
 -0.03932120022843884   11    8   10    5
 0.06491456597774285   11    8   10   10
 0.03414061472961974   11    8   11    2
 0.0514959131718199   11    8   11    8
 -0.02560829282363782   11    9    4    2
 -0.02447043692635177   11    9    7    1
 -0.01334891271235323   11    9    7    3
 -0.005142648468531274   11    9    8    4
 0.01074852325699068   11    9    9    2
 0.001738026184568462   11    9    9    8
 -0.004035409706484203   11    9   11    4
 0.01928997857052675   11    9   11    9
 -0.02560829282363782   11   10    5    2
 -0.02447043692635179   11   10    6    1
 -0.01334891271235324   11   10    6    3
 -0.005142648468531275   11   10    8    5
 0.01074852325699067   11   10   10    2
 0.001738026184568456   11   10   10    8
 -0.004035409706484195   11   10   11    5
 0.01928997857052674   11   10   11   10
 0.3654552549212745   11   11    1    1
 0.3840002071583632   11   11    2    2
 0.03758470296983409   11   11    3    1
 0.3771989800250359   11   11    3    3
 0.3471438076999851   11   11    4    4
 0.3471438076999851   11   11    5    5
 0.3572080786516715   11   11    6    6
 0.3572080786516711   11   11    7    7
 0.02936866067480169   11   11    8    2
 0.3797525411880323   11   11    8    8
 -0.06723843357363013   11   11    9    4
 0.3342902651853227   11   11    9    9
 -0.06723843357363006   11   11   10    5
 0.3342902651853227   11   11   10   10
 0.04547646236024033   11   11   11    2
 0.04623734895426693   11   11   11    8
 0.3732712927602893   11   11   11   11
 -0.07148173102625152   12    1    1    1
 -0.07688433125002811   12    1    2    2
 -0.00608506371387929   12    1    3    1
 -0.06204372964469875   12    1    3    3
 -0.06224080705776466   12    1    4    4
 -0.06224080705776467   12    1    5    5
 -0.06764712071701733   12    1    6    6
 -0.06764712071701706   12    1    7    7
 0.005021450383094841   12    1    8    2
 -0.0720828533898917   12    1    8    8
 0.04912288336220193   12    1    9    4
 -0.05884068883847561   12    1    9    9
 0.04912288336220194   12    1   10    5
 -0.05884068883847561   12    1   10   10
 -0.03131354006478465   12    1   11    2
 -0.03741495641521252   12    1   11    8
 -0.05089377530899513   12    1   11   11
 0.04218462903754405   12    1   12    1
 -0.07671453260199977   12    2    2    1
 -0.0214673212148005   12    2    3    2
 -0.06803139418009689   12    2    6    5
 -0.06803139418009674   12    2    7    4
 0.01503937715646217   12    2    8    1
 -0.06488049645126799   12    2    8    3
 0.05583122805545071   12    2    9    7
 0.05583122805545088   12    2   10    6
 -0.02696256691025707   12    2   11    1
 -0.04771900895194281   12    2   11    3
 0.04990757012768649   12    2   12    2
 -0.03664762594467561   12    3    1    1
 -0.03682759902543935   12    3    2    2
 -0.001219073317866631   12    3    3    1
 -0.03812292302637436   12    3    3    3
 -0.0324970797268964   12    3    4    4
 -0.03249707972689641   12    3    5    5
 -0.03200410080536356   12    3    6    6
 -0.03200410080536346   12    3    7    7
 -0.002404088784710525   12    3    8    2
 -0.02977125786803647   12    3    8    8
 0.01385337236800498   12    3    9    4
 -0.03271367988191115   12    3    9    9
 0.01385337236800498   12    3   10    5
 -0.03271367988191114   12    3   10   10
 -0.02470924513817322   12    3   11    2
 -0.02599735757374332   12    3   11    8
 -0.01956883375208312   12    3   11   11
 0.01449475410107563   12    3   12    1
 0.0251296709433201   12    3   12    3
 -0.006202659340838251   12    4    4    1
 -0.00338094755866981   12    4    4    3
 -0.008650379050939183   12    4    7    2
 0.002151151544547113   12    4    8    7
 0.01874848207973115   12    4    9    1
 0.001393467524694458   12    4    9    3
 -0.01201429727134404   12    4   11    7
 0.01983041515819237   12    4   12    4
 -0.006202659340838248   12    5    5    1
 -0.00338094755866981   12    5    5    3
 -0.00865037905093923   12    5    6    2
 0.002151151544547117   12    5    8    6
 0.01874848207973115   12    5   10    1
 0.001393467524694455   12    5   10    3
 -0.01201429727134404   12    5   11    6
 0.01983041515819238   12    5   12    5
 -0.01337967297310851   12    6    5    2
 -0.0135296413224386   12    6    6    1
 -0.001350937629113566   12    6    6    3
 0.004319176868262973   12    6    8    5
 0.01875461606231547   12    6   10    2
 -0.001373567622528249   12    6   10    8
 -0.0113187141907323   12    6   11    5
 0.00349719251933305   12    6   11   10
 0.01876599720513232   12    6   12    6
 -0.0133796729731084   12    7    4    2
 -0.01352964132243845   12    7    7    1
 -0.001350937629113526   12    7    7    3
 0.004319176868262962   12    7    8    4
 0.01875461606231543   12    7    9    2
 -0.001373567622528239   12    7    9    8
 -0.01131871419073228   12    7   11    4
 0.003497192519332989   12    7   11    9
 0.01876599720513229   12    7   12    7
 0.02537699670643637   12    8    2    1
 -0.003127193444087416   12    8    3    2
 0.02504683798728549   12    8    6    5
 0.02504683798728547   12    8    7    4
 -0.0155370411306721   12    8    8    1
 0.02635771869721365   12    8    8    3
 -0.006322006444464761   12    8    9    7
 -0.006322006444464807   12    8   10    6
 -0.01212713802709264   12    8   11    1
 -0.01067387603186531   12    8   11    3
 0.001584859406828473   12    8   12    2
 0.02242818565101548   12    8   12    8
 0.05067010790509161   12    9    4    1
 0.003021494299045655   12    9    4    3
 0.05163375110280494   12    9    7    2
 -0.006968108800070877   12    9    8    7
 -0.01169807967380707   12    9    9    1
 -0.009658997097022753   12    9    9    3
 0.002903756294682406   12    9   11    7
 -0.0002993419219607142   12    9   12    4
 0.0447685510933646   12    9   12    9
 0.05067010790509161   12   10    5    1
 0.003021494299045655   12   10    5    3
 0.05163375110280496   12   10    6    2
 -0.006968108800070897   12   10    8    6
 -0.01169807967380706   12   10   10    1
 -0.009658997097022738   12   10   10    3
 0.002903756294682482   12   10   11    6
 -0.0002993419219607226   12   10   12    5
 0.04476855109336465   12   10   12   10
 -0.135317882128516   12   11    2    1
 -0.08070710615504789   12   11    3    2
 -0.1253233599208387   12   11    6    5
 -0.1253233599208386   12   11    7    4
 -0.0221489160104981   12   11    8    1
 -0.1262417774493486   12   11    8    3
 0.04881094616057868   12   11    9    7
 0.04881094616057894   12   11   10    6
 -0.02243115079125794   12   11   11    1
 -0.02851802506302593   12   11   11    3
 0.03423250733073725   12   11   12    2
 -0.01765976866066796   12   11   12    8
 0.1248783948112154   12   11   12   11
 0.3822895905572907   12   12    1    1
 0.3864362607759249   12   12    2    2
 0.004233958418345646   12   12    3    1
 0.377213498058053   12   12    3    3
 0.3653801269142393   12   12    4    4
 0.3653801269142394   12   12    5    5
 0.3709515332459724   12   12    6    6
 0.370951533245972   12   12    7    7
 -0.004032003786044537   12   12    8    2
 0.382672396319939   12   12    8    8
 -0.05984479683776357   12   12    9    4
 0.3490178763929748   12   12    9    9
 -0.05984479683776358   12   12   10    5
 0.3490178763929748   12   12   10   10
 0.03789282009806628   12   12   11    2
 0.04693173751131113   12   12   11    8
 0.3425537370128895   12   12   11   11
 -0.04572170023861982   12   12   12    1
 -0.02240219767126282   12   12   12    3
 0.3410670899260991   12   12   12   12
 0.02052916686318491   13    1    5    2
 0.02092410668218918   13    1    6    1
 0.0007561558885097118   13    1    6    3
 -0.007449080464163147   13    1    8    5
 -0.0197669971302805   13    1   10    2
 0.004023577694431057   13    1   10    8
 0.009135957041507485   13    1   11    5
 -0.005965731963561541   13    1   11   10
 -0.01764283633414342   13    1   12    6
 0.01853670985070285   13    1   13    1
 0.01982196708717676   13    2    5    1
 0.001068375065622427   13    2    5    3
 0.02135989269923525   13    2    6    2
 -0.006319381752679249   13    2    8    6
 -0.0198341208510599   13    2   10    1
 -0.003910000168192966   13    2   10    3
 0.0115208674938367   13    2   11    6
 -0.0181289480312117   13    2   12    5
 0.01164881551770013   13    2   12   10
 0.0200918472789141   13    2   13    2
 -0.001029964112502802   13    3    5    2
 -0.001666157562773449   13    3    6    1
 0.004291979820333126   13    3    6    3
 0.00487768449374322   13    3    8    5
 -0.002884288157859536   13    3   10    2
 -0.006705407054552746   13    3   10    8
 0.006874088287418993   13    3   11    5
 -0.002063240501293351   13    3   11   10
 -0.004096105508135915   13    3   12    6
 0.001394529891038179   13    3   13    1
 0.007040398608157539   13    3   13    3
 0.003891038732097808   13    4    6    4
 0.003891038732097789   13    4    7    5
 -0.007258207381599141   13    4    9    6
 -0.007258207381599134   13    4   10    7
 0.007129809888109273   13    4   13    4
 0.07367395907587895   13    5    2    1
 0.01401267701042986   13    5    3    2
 0.07066242058826883   13    5    6    5
 0.06288034312407306   13    5    7    4
 -0.0216745415495879   13    5    8    1
 0.06222860133533345   13    5    8    3
 -0.05252746884164818   13    5    9    7
 -0.06704388360484666   13    5   10    6
 0.02273979235102267   13    5   11    1
 0.04253531057209405   13    5   11    3
 -0.04903851198574481   13    5   12    2
 0.004097818091520691   13    5   12    8
 -0.02961088930665608   13    5   12   11
 0.06114415007619869   13    5   13    5
 0.09566320018092576   13    6    1    1
 0.0967909298125125   13    6    2    2
 -0.004441996321601172   13    6    3    1
 0.08364931489492046   13    6    3    3
 0.080290906595208   13    6    4    4
 0.08757118992614107   13    6    5    5
 0.09318730615787663   13    6    6    6
 0.08461587097457027   13    6    7    7
 -0.01547139659037323   13    6    8    2
 0.09561765609188323   13    6    8    8
 -0.05301512180459599   13    6    9    4
 0.07659170293627991   13    6    9    9
 -0.06822762820901644   13    6   10    5
 0.08258043604962555   13    6   10   10
 0.03372442812517087   13    6   11    2
 0.04263386198347235   13    6   11    8
 0.06140257344360638   13    6   11   11
 -0.04844118379874369   13    6   12    1
 -0.01731951289550339   13    6   12    3
 0.06006699696004329   13    6   12   12
 0.07028134128215877   13    6   13    6
 0.003640141665466503   13    7    5    4
 0.004285717591652975   13    7    7    6
 -0.007606253202210231   13    7    9    5
 -0.007606253202210231   13    7   10    4
 0.002994366556672842   13    7   10    9
 0.007822882921143125   13    7   13    7
 -0.01226665491362475   13    8    5    1
 0.004396603284324743   13    8    5    3
 -0.01165858545626582   13    8    6    2
 0.008324515561754309   13    8    8    6
 0.005143494393817673   13    8   10    1
 -0.005661547214342133   13    8   10    3
 0.004657836478897521   13    8   11    6
 0.00142471823034964   13    8   12    5
 -0.008197453001250098   13    8   12   10
 -0.004103007499064123   13    8   13    2
 0.01033966393842473   13    8   13    8
 -0.01164587788891027   13    9    6    4
 -0.01164587788891027   13    9    7    5
 0.00408278492660426   13    9    9    6
 0.004082784926604229   13    9   10    7
 -0.002674459904949807   13    9   13    4
 0.01140429072134665   13    9   13    9
 -0.169851549754937   13   10    2    1
 -0.05447993923514743   13   10    3    2
 -0.1770219580893498   13   10    6    5
 -0.1537302023115291   13   10    7    4
 0.02275571302009788   13   10    8    1
 -0.1460414178116372   13   10    8    3
 0.0738089652870647   13   10    9    7
 0.08197453514027356   13   10   10    6
 -0.0261978630100876   13   10   11    1
 -0.05119365738017148   13   10   11    3
 0.05891647572286381   13   10   12    2
 -0.02207979158855694   13   10   12    8
 0.1111021711974378   13   10   12   11
 -0.0608515404852632   13   10   13    5
 0.1603971463325711   13   10   13   10
 0.02695204632452333   13   11    5    1
 0.01144550443639919   13   11    5    3
 0.03039847087616388   13   11    6    2
 0.005853870597523965   13   11    8    6
 -0.006633651535014372   13   11   10    1
 -0.006169108648559267   13   11   10    3
 0.001721347552561275   13   11   11    6
 0.0010816700357136   13   11   12    5
 0.0266462205982861   13   11   12   10
 0.004134407239988197   13   11   13    2
 -0.002455100296912362   13   11   13    8
 0.02361600115040118   13   11   13   11
 -0.04288270872342933   13   12    5    2
 -0.04250197631421185   13   12    6    1
 -0.0104627008934566   13   12    6    3
 0.004227450215982404   13   12    8    5
 0.01592155012470083   13   12   10    2
 -0.004216984982329568   13   12   10    8
 -0.001714393272787864   13   12   11    5
 0.02322679681517813   13   12   11   10
 0.004500860163507477   13   12   12    6
 -0.01081861347881634   13   12   13    1
 0.00237381641858981   13   12   13    3
 0.03769366401742767   13   12   13   12
 0.3917336515719042   13   13    1    1
 0.3916965659983688   13   13    2    2
 -0.008356186767637426   13   13    3    1
 0.3730485263949663   13   13    3    3
 0.3659885591858885   13   13    4    4
 0.3909522363449933   13   13    5    5
 0.3972266179365617   13   13    6    6
 0.3712268773127623   13   13    7    7
 -0.02218811653490548   13   13    8    2
 0.3859296065965377   13   13    8    8
 -0.06823447358154322   13   13    9    4
 0.352737453714675   13   13    9    9
 -0.07306531378855714   13   13   10    5
 0.3784831904467404   13   13   10   10
 0.04116145685287197   13   13   11    2
 0.0570302811405583   13   13   11    8
 0.3308100969485756   13   13   11   11
 -0.0550295514782633   13   13   12    1
 -0.02448662193908465   13   13   12    3
 0.3408882661385298   13   13   12   12
 0.07456983441340005   13   13   13    6
 0.3701437029816731   13   13   13   13
 0.02052916686318508   14    1    4    2
 0.0209241066821893   14    1    7    1
 0.0007561558885097307   14    1    7    3
 -0.007449080464163184   14    1    8    4
 -0.01976699713028058   14    1    9    2
 0.004023577694431071   14    1    9    8
 0.009135957041507506   14    1   11    4
 -0.005965731963561607   14    1   11    9
 -0.01764283633414343   14    1   12    7
 0.01853670985070298   14    1   14    1
 0.01982196708717695   14    2    4    1
 0.001068375065622443   14    2    4    3
 0.02135989269923539   14    2    7    2
 -0.00631938175267927   14    2    8    7
 -0.01983412085105997   14    2    9    1
 -0.003910000168192999   14    2    9    3
 0.01152086749383671   14    2   11    7
 -0.01812894803121172   14    2   12    4
 0.01164881551770025   14    2   12    9
 0.02009184727891423   14    2   14    2
 -0.001029964112502777   14    3    4    2
 -0.001666157562773433   14    3    7    1
 0.004291979820333151   14    3    7    3
 0.004877684493743259   14    3    8    4
 -0.002884288157859553   14    3    9    2
 -0.006705407054552762   14    3    9    8
 0.00687408828741901   14    3   11    4
 -0.002063240501293386   14    3   11    9
 -0.004096105508135929   14    3   12    7
 0.001394529891038177   14    3   14    1
 0.007040398608157569   14    3   14    3
 0.07367395907587954   14    4    2    1
 0.01401267701043003   14    4    3    2
 0.06288034312407369   14    4    6    5
 0.07066242058826924   14    4    7    4
 -0.02167454154958799   14    4    8    1
 0.0622286013353339   14    4    8    3
 -0.06704388360484671   14    4    9    7
 -0.05252746884164857   14    4   10    6
 0.02273979235102277   14    4   11    1
 0.04253531057209418   14    4   11    3
 -0.04903851198574501   14    4   12    2
 0.004097818091520774   14    4   12    8
 -0.02961088930665648   14    4   12   11
 0.04688453029998031   14    4   13    5
 -0.05550262067536397   14    4   13   10
 0.06114415007619906   14    4   14    4
 0.003891038732097851   14    5    6    4
 0.003891038732097832   14    5    7    5
 -0.007258207381599158   14    5    9    6
 -0.007258207381599151   14    5   10    7
 0.007129809888109286   14    5   13    4
 -0.002674459904949838   14    5   13    9
 0.007129809888109299   14    5   14    5
 0.003640141665466579   14    6    5    4
 0.004285717591653055   14    6    7    6
 -0.007606253202210253   14    6    9    5
 -0.007606253202210253   14    6   10    4
 0.002994366556672911   14    6   10    9
 0.007822882921143144   14    6   13    7