 &FCI NORB=  26,NELEC=10,MS2=0,
  ORBSYM=1,1,1,1,1,1,1,1,1,1,1,1,1,1,1,1,1,1,1,1,1,1,1,1,1,1
  ISYM=1,
 &END
 0.6406252339120089    1    1    1    1
 0.1119841274910565    2    1    2    1
 0.4946459523039906    2    2    1    1
 0.5124110866474072    2    2    2    2
 -0.1068444524909243    3    1    1    1
 0.004789514113489692    3    1    2    2
 0.07830903617222293    3    1    3    1
 0.1130789867441132    3    2    2    1
 0.1648744991570558    3    2    3    2
 0.5259999864552987    3    3    1    1
 0.5124014100938119    3    3    2    2
 -0.02248303207639222    3    3    3    1
 0.5381353291658924    3    3    3    3
 0.0823444672723856    4    1    4    1
 0.04972416867827043    4    2    4    2
 0.004675418827718411    4    3    4    1
 0.0207520006048996    4    3    4    3
 0.5349443964641635    4    4    1    1
 0.4671179268459157    4    4    2    2
 -0.04810056565817766    4    4    3    1
 0.4695220165595803    4    4    3    3
 0.5040771910666828    4    4    4    4
 0.0823444672723856    5    1    5    1
 0.04972416867827041    5    2    5    2
 0.004675418827718411    5    3    5    1
 0.0207520006048996    5    3    5    3
 0.01902145757121722    5    4    5    4
 0.5349443964641635    5    5    1    1
 0.4671179268459157    5    5    2    2
 -0.04810056565817768    5    5    3    1
 0.4695220165595805    5    5    3    3
 0.4660342759242482    5    5    4    4
 0.5040771910666827    5    5    5    5
 0.04589097769754064    6    1    5    2
 0.04505960946019986    6    1    6    1
 0.0677537066628493    6    2    5    1
 0.0232408083228393    6    2    5    3
 0.07462938030044727    6    2    6    2
 0.02860290689531781    6    3    5    2
 0.02099979638927207    6    3    6    1
 0.02782336914722824    6    3    6    3
 0.01503578278197483    6    4    6    4
 0.1282284443226551    6    5    2    1
 0.1240896377360442    6    5    3    2
 0.1672107032241037    6    5    6    5
 0.5031663236904161    6    6    1    1
 0.4754223959259988    6    6    2    2
 -0.02196578906338943    6    6    3    1
 0.4710313688550309    6    6    3    3
 0.4517135276893792    6    6    4    4
 0.4868199134707767    6    6    5    5
 0.4856759193158053    6    6    6    6
 0.04589097769754062    7    1    4    2
 0.04505960946019984    7    1    7    1
 0.0677537066628493    7    2    4    1
 0.0232408083228393    7    2    4    3
 0.07462938030044726    7    2    7    2
 0.0286029068953178    7    3    4    2
 0.02099979638927207    7    3    7    1
 0.02782336914722823    7    3    7    3
 0.128228444322655    7    4    2    1
 0.1240896377360442    7    4    3    2
 0.137139137660154    7    4    6    5
 0.1672107032241036    7    4    7    4
 0.01503578278197482    7    5    6    4
 0.01503578278197482    7    5    7    5
 0.0175531928906987    7    6    5    4
 0.01861674317193597    7    6    7    6
 0.503166323690416    7    7    1    1
 0.4754223959259986    7    7    2    2
 -0.02196578906338942    7    7    3    1
 0.4710313688550308    7    7    3    3
 0.4868199134707765    7    7    4    4
 0.4517135276893791    7    7    5    5
 0.4484424329719331    7    7    6    6
 0.4856759193158049    7    7    7    7
 -0.0648745666631714    8    1    2    1
 -0.02130200357016715    8    1    3    2
 -0.07671629397776429    8    1    6    5
 -0.07671629397776428    8    1    7    4
 0.08095598483938812    8    1    8    1
 -0.08786016235532769    8    2    1    1
 -0.01478209060255756    8    2    2    2
 0.04668209772141395    8    2    3    1
 -0.01363069041122221    8    2    3    3
 -0.0601213011024427    8    2    4    4
 -0.06012130110244272    8    2    5    5
 -0.04323254740029159    8    2    6    6
 -0.04323254740029151    8    2    7    7
 0.04967103708491707    8    2    8    2
 0.08710465767969852    8    3    2    1
 0.1006648565116377    8    3    3    2
 0.09352778303981375    8    3    6    5
 0.09352778303981374    8    3    7    4
 -0.04728887376009568    8    3    8    1
 0.09328206466015197    8    3    8    3
 -0.02231188481867256    8    4    4    2
 -0.02670443372059026    8    4    7    1
 0.0001762119456528797    8    4    7    3
 0.02500505261436898    8    4    8    4
 -0.02231188481867256    8    5    5    2
 -0.02670443372059026    8    5    6    1
 0.0001762119456528837    8    5    6    3
 0.02500505261436897    8    5    8    5
 -0.0384333012784775    8    6    5    1
 0.00621060553797034    8    6    5    3
 -0.0243436302785858    8    6    6    2
 0.02673608890383867    8    6    8    6
 -0.03843330127847748    8    7    4    1
 0.006210605537970338    8    7    4    3
 -0.02434363027858577    8    7    7    2
 0.02673608890383864    8    7    8    7
 0.5285734226234795    8    8    1    1
 0.4567545604311278    8    8    2    2
 -0.05764598791729336    8    8    3    1
 0.4807836270588879    8    8    3    3
 0.4592896013870176    8    8    4    4
 0.4592896013870177    8    8    5    5
 0.447047147552783    8    8    6    6
 0.4470471475527827    8    8    7    7
 -0.04442513881115164    8    8    8    2
 0.4781487801831679    8    8    8    8
 -0.01341289796674932    9    1    2    1
 0.01094174320591621    9    1    3    2
 -0.0168001769169099    9    1    6    5
 -0.01680017691690989    9    1    7    4
 0.032631088479975    9    1    8    1
 -0.01598608050846027    9    1    8    3
 0.02108458963461981    9    1    9    1
 0.03433134312195283    9    2    1    1
 0.0746069194229516    9    2    2    2
 0.02367070462013447    9    2    3    1
 0.07291617107907597    9    2    3    3
 0.04075024542796044    9    2    4    4
 0.04075024542796041    9    2    5    5
 0.04947829005613213    9    2    6    6
 0.04947829005613211    9    2    7    7
 0.01195395101733156    9    2    8    2
 0.03212235887093065    9    2    8    8
 0.04551207852933632    9    2    9    2
 0.07619332667859646    9    3    2    1
 0.08280327735195454    9    3    3    2
 0.08087246037101102    9    3    6    5
 0.08087246037101099    9    3    7    4
 -0.04898665696074701    9    3    8    1
 0.06444504652017326    9    3    8    3
 -0.003556663640235273    9    3    9    1
 0.09418933430205965    9    3    9    3
 -0.0004349300858290469    9    4    4    2
 -0.003896236471364109    9    4    7    1
 0.00572647080947946    9    4    7    3
 0.006701932274932412    9    4    8    4
 0.007971990453831981    9    4    9    4
 -0.0004349300858290499    9    5    5    2
 -0.003896236471364113    9    5    6    1
 0.005726470809479463    9    5    6    3
 0.006701932274932413    9    5    8    5
 0.007971990453831982    9    5    9    5
 -0.008552808925625434    9    6    5    1
 0.006685667208369863    9    6    5    3
 -0.0009467001905571019    9    6    6    2
 0.00606773396925779    9    6    8    6
 0.01120366678664517    9    6    9    6
 -0.008552808925625432    9    7    4    1
 0.006685667208369857    9    7    4    3
 -0.0009467001905571086    9    7    7    2
 0.00606773396925778    9    7    8    7
 0.01120366678664517    9    7    9    7
 0.1517800546998631    9    8    1    1
 0.09808744727028249    9    8    2    2
 -0.04179210560600904    9    8    3    1
 0.1127794679356024    9    8    3    3
 0.1102575859235275    9    8    4    4
 0.1102575859235276    9    8    5    5
 0.09906488400069341    9    8    6    6
 0.09906488400069333    9    8    7    7
 -0.03789500601570005    9    8    8    2
 0.10573053338283    9    8    8    8
 0.02952233206056577    9    8    9    2
 0.08397322904556841    9    8    9    8
 0.4342559910832189    9    9    1    1
 0.4431015556322077    9    9    2    2
 -0.005514043170024806    9    9    3    1
 0.4620917873329434    9    9    3    3
 0.4000659572354138    9    9    4    4
 0.4000659572354138    9    9    5    5
 0.4073415097234168    9    9    6    6
 0.4073415097234167    9    9    7    7
 -0.0005348964501840595    9    9    8    2
 0.4232710352656097    9    9    8    8
 0.05690291664698983    9    9    9    2
 0.07549381425137205    9    9    9    8
 0.4287727023572659    9    9    9    9
 -0.02204990477802526   10    1    4    1
 -0.001059254671180612   10    1    4    3
 -0.01997781475967615   10    1    7    2
 0.01447218277251815   10    1    8    7
 -0.0007715464406645487   10    1    9    7
 0.02043661231564708   10    1   10    1
 -0.02105076285625501   10    2    4    2
 -0.02013556338460157   10    2    7    1
 -0.009650731328761746   10    2    7    3
 0.01218498084516249   10    2    8    4
 -0.003787255451026893   10    2    9    4
 0.01918905380396469   10    2   10    2
 0.0004573222822078786   10    3    4    1
 -0.007725271903094483   10    3    4    3
 -0.006171036769149737   10    3    7    2
 -0.002260502965526376   10    3    8    7
 -0.009338186170826823   10    3    9    7
 0.002230235645222945   10    3   10    1
 0.009096756027469991   10    3   10    3
 -0.1136922679946738   10    4    1    1
 -0.09764907769687163   10    4    2    2
 0.01536381703671513   10    4    3    1
 -0.1007127416257592   10    4    3    3
 -0.09210762673344208   10    4    4    4
 -0.08675358548600022   10    4    5    5
 -0.08808380123361327   10    4    6    6
 -0.09606106261463622   10    4    7    7
 0.0217192023699877   10    4    8    2
 -0.09384877319044341   10    4    8    8
 -0.02713406555616337   10    4    9    2
 -0.05273455105415956   10    4    9    8
 -0.0817948937559481   10    4    9    9
 0.07264594978544292   10    4   10    4
 -0.002677020623720915   10    5    5    4
 -0.003988630690511492   10    5    7    6
 0.008381821652347261   10    5   10    5
 -0.005231809480394901   10    6    6    4
 -0.005231809480394897   10    6    7    5
 0.00762745133987214   10    6   10    6
 -0.06185939727926296   10    7    2    1
 -0.05088355201014972   10    7    3    2
 -0.06478347347093408   10    7    6    5
 -0.07524709243172381   10    7    7    4
 0.04893733083706332   10    7    8    1
 -0.04321274329141664   10    7    8    3
 0.008813481558502891   10    7    9    1
 -0.06082860486131241   10    7    9    3
 0.06823950485074849   10    7   10    7
 0.01557492658802547   10    8    4    2
 0.0180609027208397   10    8    7    1
 0.002465925357138287   10    8    7    3
 -0.01380576984618064   10    8    8    4
 -0.006213007458293394   10    8    9    4
 -0.009062168819163616   10    8   10    2
 0.01402427156960261   10    8   10    8
 -0.01121114621074849   10    9    4    2
 -0.005986879621127292   10    9    7    1
 -0.01520031328603952   10    9    7    3
 -0.005220866912353397   10    9    8    4
 -0.004465825996127709   10    9    9    4
 0.002440907221009805   10    9   10    2
 0.00179353007952239   10    9   10    8
 0.01212094925497579   10    9   10    9
 0.4706704404739069   10   10    1    1
 0.4267123094523591   10   10    2    2
 -0.03249038522770658   10   10    3    1
 0.4274305635934237   10   10    3    3
 0.4514520855408383   10   10    4    4
 0.4219688738753328   10   10    5    5
 0.4135240527374671   10   10    6    6
 0.4416113831304906   10   10    7    7
 -0.04613818009312718   10   10    8    2
 0.4159979739541261   10   10    8    8
 0.03974150750629565   10   10    9    2
 0.09387398148106928   10   10    9    8
 0.3771227665899859   10   10    9    9
 -0.0785879142714427   10   10   10    4
 0.4272793308027293   10   10   10   10
 -0.02204990477802529   11    1    5    1
 -0.001059254671180597   11    1    5    3
 -0.01997781475967616   11    1    6    2
 0.01447218277251817   11    1    8    6
 -0.0007715464406645341   11    1    9    6
 0.02043661231564708   11    1   11    1
 -0.02105076285625498   11    2    5    2
 -0.02013556338460157   11    2    6    1
 -0.009650731328761727   11    2    6    3
 0.01218498084516249   11    2    8    5
 -0.003787255451026882   11    2    9    5
 0.01918905380396468   11    2   11    2
 0.0004573222822079182   11    3    5    1
 -0.00772527190309447   11    3    5    3
 -0.006171036769149697   11    3    6    2
 -0.002260502965526388   11    3    8    6
 -0.009338186170826828   11    3    9    6
 0.002230235645222928   11    3   11    1
 0.009096756027469986   11    3   11    3
 -0.002677020623720915   11    4    5    4
 -0.003988630690511488   11    4    7    6
 0.008381821652347261   11    4   10    5
 0.008381821652347261   11    4   11    4
 -0.1136922679946739   11    5    1    1
 -0.09764907769687163   11    5    2    2
 0.01536381703671517   11    5    3    1
 -0.1007127416257592   11    5    3    3
 -0.08675358548600021   11    5    4    4
 -0.09210762673344208   11    5    5    5
 -0.09606106261463629   11    5    6    6
 -0.08808380123361317   11    5    7    7
 0.02171920236998772   11    5    8    2
 -0.09384877319044349   11    5    8    8
 -0.02713406555616338   11    5    9    2
 -0.05273455105415953   11    5    9    8
 -0.08179489375594806   11    5    9    9
 0.05588230648074836   11    5   10    4
 -0.07648641541982888   11    5   10   10
 0.07264594978544291   11    5   11    5
 -0.06185939727926299   11    6    2    1
 -0.05088355201014971   11    6    3    2
 -0.07524709243172389   11    6    6    5
 -0.06478347347093402   11    6    7    4
 0.04893733083706336   11    6    8    1
 -0.04321274329141665   11    6    8    3
 0.008813481558502896   11    6    9    1
 -0.06082860486131241   11    6    9    3
 0.05298460217100424   11    6   10    7
 0.06823950485074862   11    6   11    6
 -0.005231809480394894   11    7    6    4
 -0.005231809480394888   11    7    7    5
 0.007627451339872138   11    7   10    6
 0.007627451339872134   11    7   11    7
 0.01557492658802548   11    8    5    2
 0.01806090272083973   11    8    6    1
 0.002465925357138288   11    8    6    3
 -0.01380576984618064   11    8    8    5
 -0.006213007458293411   11    8    9    5
 -0.009062168819163611   11    8   11    2
 0.01402427156960262   11    8   11    8
 -0.01121114621074848   11    9    5    2
 -0.005986879621127281   11    9    6    1
 -0.01520031328603952   11    9    6    3
 -0.005220866912353407   11    9    8    5
 -0.004465825996127705   11    9    9    5
 0.002440907221009785   11    9   11    2
 0.001793530079522401   11    9   11    8
 0.01212094925497577   11    9   11    9
 0.01474160583275272   11   10    5    4
 0.01404366519651174   11   10    7    6
 -0.001050749425806905   11   10   10    5
 -0.001050749425806906   11   10   11    4
 0.01584480146154797   11   10   11   10
 0.470670440473907   11   11    1    1
 0.4267123094523592   11   11    2    2
 -0.03249038522770663   11   11    3    1
 0.4274305635934238   11   11    3    3
 0.4219688738753329   11   11    4    4
 0.4514520855408383   11   11    5    5
 0.4416113831304908   11   11    6    6
 0.413524052737467   11   11    7    7
 -0.04613818009312712   11   11    8    2
 0.4159979739541266   11   11    8    8
 0.0397415075062956   11   11    9    2
 0.09387398148106937   11   11    9    8
 0.3771227665899856   11   11    9    9
 -0.07648641541982888   11   11   10    4
 0.3955897278796334   11   11   10   10
 -0.07858791427144274   11   11   11    5
 0.4272793308027294   11   11   11   11
 0.005719294574624295   12    1    1    1
 -0.02092100309079689   12    1    2    2
 -0.02071006169777907   12    1    3    1
 -0.007235181448176765   12    1    3    3
 -0.01202392894896082   12    1    4    4
 -0.01202392894896082   12    1    5    5
 -0.01524972614767273   12    1    6    6
 -0.01524972614767272   12    1    7    7
 -0.003099703432467013   12    1    8    2
 0.004963674869493423   12    1    8    8
 -0.01607677948904461   12    1    9    2
 -0.0005629189636320768   12    1    9    8
 -0.005882040953378081   12    1    9    9
 0.004178022638485692   12    1   10    4
 -0.01147066247730808   12    1   10   10
 0.004178022638485673   12    1   11    5
 -0.01147066247730806   12    1   11   11
 0.01432564006552774   12    1   12    1
 -0.03637937492205572   12    2    2    1
 -0.03997492424190854   12    2    3    2
 -0.04010137207709857   12    2    6    5
 -0.04010137207709855   12    2    7    4
 0.02020469257181022   12    2    8    1
 -0.01813520783325424   12    2    8    3
 -0.007061843001902272   12    2    9    1
 -0.05187583618085154   12    2    9    3
 0.03650538366079849   12    2   10    7
 0.03650538366079849   12    2   11    6
 0.03865431778485487   12    2   12    2
 -0.1165907859622502   12    3    1    1
 -0.09394907935080447   12    3    2    2
 0.02098028181603697   12    3    3    1
 -0.1039227677772024   12    3    3    3
 -0.08902583593327736   12    3    4    4
 -0.08902583593327734   12    3    5    5
 -0.08555547161483688   12    3    6    6
 -0.08555547161483684   12    3    7    7
 0.02306388257199389   12    3    8    2
 -0.08182040864038954   12    3    8    8
 -0.04040709600815082   12    3    9    2
 -0.06892446457155131   12    3    9    8
 -0.07635189605151654   12    3    9    9
 0.05113603119100731   12    3   10    4
 -0.07904519733591546   12    3   10   10
 0.05113603119100731   12    3   11    5
 -0.07904519733591554   12    3   11   11
 0.007153062326362362   12    3   12    1
 0.06832122337488469   12    3   12    3
 -0.01418298344131304   12    4    4    1
 -0.004844377113652031   12    4    4    3
 -0.01468740073012485   12    4    7    2
 0.007263344484426554   12    4    8    7
 -0.006155924119182168   12    4    9    7
 0.005590582621368982   12    4   10    1
 0.007491955597394401   12    4   10    3
 0.009662069369924656   12    4   12    4
 -0.01418298344131304   12    5    5    1
 -0.004844377113652028   12    5    5    3
 -0.01468740073012485   12    5    6    2
 0.007263344484426553   12    5    8    6
 -0.006155924119182163   12    5    9    6
 0.005590582621368985   12    5   11    1
 0.007491955597394396   12    5   11    3
 0.009662069369924657   12    5   12    5
 -0.009968138318410598   12    6    5    2
 -0.00846245669243347   12    6    6    1
 -0.005252029109263562   12    6    6    3
 0.005513807612383437   12    6    8    5
 -0.006573272684934878   12    6    9    5
 0.01197825484698307   12    6   11    2
 0.000307260835900116   12    6   11    8
 0.001676314277750497   12    6   11    9
 0.01204146839506216   12    6   12    6
 -0.009968138318410587   12    7    4    2
 -0.008462456692433458   12    7    7    1
 -0.005252029109263549   12    7    7    3
 0.005513807612383442   12    7    8    4
 -0.006573272684934883   12    7    9    4
 0.01197825484698306   12    7   10    2
 0.0003072608359001164   12    7   10    8
 0.001676314277750505   12    7   10    9
 0.01204146839506215   12    7   12    7
 0.01206005479342502   12    8    2    1
 0.03038794264100357   12    8    3    2
 0.01596100574845057   12    8    6    5
 0.0159610057484506   12    8    7    4
 0.01633417126791331   12    8    8    1
 0.01655921156011924   12    8    8    3
 0.002722560100553448   12    8    9    1
 -0.02778403099332715   12    8    9    3
 0.01472799649490563   12    8   10    7
 0.01472799649490568   12    8   11    6
 0.02125412911380032   12    8   12    2
 0.04676872090261944   12    8   12    8
 -0.1097395824589487   12    9    2    1
 -0.143201079084151   12    9    3    2
 -0.1223621409785239   12    9    6    5
 -0.1223621409785239   12    9    7    4
 0.0407816595281667   12    9    8    1
 -0.1125914901561997   12    9    8    3
 0.00882185806688799   12    9    9    1
 -0.07252475206662054   12    9    9    3
 0.05019668010181284   12    9   10    7
 0.05019668010181277   12    9   11    6
 0.02454156690330924   12    9   12    2
 -0.03807378172260397   12    9   12    8
 0.1641113054342941   12    9   12    9
 0.01235369698930147   12   10    4    1
 0.01402193074344879   12   10    4    3
 0.02297340986653626   12   10    7    2
 0.0009924556948548834   12   10    8    7
 0.0019896816975001   12   10    9    7
 -0.004923169703892312   12   10   10    1
 -0.004190482920738871   12   10   10    3
 -0.003183915288206284   12   10   12    4
 0.01465155079009951   12   10   12   10
 0.01235369698930147   12   11    5    1
 0.01402193074344879   12   11    5    3
 0.02297340986653627   12   11    6    2
 0.000992455694854883   12   11    8    6
 0.001989681697500097   12   11    9    6
 -0.004923169703892299   12   11   11    1
 -0.004190482920738851   12   11   11    3
 -0.003183915288206276   12   11   12    5
 0.01465155079009952   12   11   12   11
 0.39702383015978   12   12    1    1
 0.4106138273490248   12   12    2    2
 0.001126986937005205   12   12    3    1
 0.4226400245155537   12   12    3    3
 0.3742570295103126   12   12    4    4
 0.3742570295103126   12   12    5    5
 0.3817318959448815   12   12    6    6
 0.3817318959448815   12   12    7    7
 0.003818756702117873   12   12    8    2
 0.3913372044006932   12   12    8    8
 0.04051975157760642   12   12    9    2
 0.04921122023149906   12   12    9    8
 0.3948073927473483   12   12    9    9
 -0.06127187592122364   12   12   10    4
 0.3535698073481347   12   12   10   10
 -0.06127187592122363   12   12   11    5
 0.3535698073481348   12   12   11   11
 -0.004725182925341175   12   12   12    1
 -0.05047214434261301   12   12   12    3
 0.3744906254301562   12   12   12   12
 0.09584815887140653   13    1    1    1
 0.0650265340709015   13    1    2    2
 -0.02878251053518533   13    1    3    1
 0.08370773233110317   13    1    3    3
 0.05682868380745591   13    1    4    4
 0.05682868380745593   13    1    5    5
 0.05809767250043461   13    1    6    6
 0.05809767250043454   13    1    7    7
 -0.01534688916058404   13    1    8    2
 0.07959944150975634   13    1    8    8
 0.01531179976291282   13    1    9    2
 0.04668121754674503   13    1    9    8
 0.06633338822115681   13    1    9    9
 -0.04900886900010936   13    1   10    4
 0.05022031679431043   13    1   10   10
 -0.04900886900010939   13    1   11    5
 0.05022031679431047   13    1   11   11
 0.00968656998587657   13    1   12    1
 -0.04201564111752572   13    1   12    3
 0.04727453325126082   13    1   12   12
 0.05449147728867392   13    1   13    1
 0.04236290260216379   13    2    2    1
 0.05063541331072854   13    2    3    2
 0.04270622405142444   13    2    6    5
 0.04270622405142439   13    2    7    4
 -0.02203363832560303   13    2    8    1
 0.03971139560135169   13    2    8    3
 -0.0009922884093187894   13    2    9    1
 0.04640587157767709   13    2    9    3
 -0.03594576339736344   13    2   10    7
 -0.03594576339736345   13    2   11    6
 -0.02399124777026581   13    2   12    2
 -0.005852913261584471   13    2   12    8
 -0.04709183828513113   13    2   12    9
 0.02979900297146425   13    2   13    2
 -0.0340779594351856   13    3    1    1
 0.02293119272079554   13    3    2    2
 0.03956131603069087   13    3    3    1
 0.01161641647081772   13    3    3    3
 -0.007233601481324212   13    3    4    4
 -0.00723360148132422   13    3    5    5
 0.002197158778557954   13    3    6    6
 0.002197158778557983   13    3    7    7
 0.02495638770431274   13    3    8    2
 -0.01521492301054711   13    3    8    8
 0.02412953955633392   13    3    9    2
 -0.01147046931400644   13    3    9    8
 0.01305783844624993   13    3    9    9
 0.001609108726428655   13    3   10    4
 -0.003413904225498266   13    3   10   10
 0.00160910872642867   13    3   11    5
 -0.003413904225498278   13    3   11   11
 -0.01616147689910258   13    3   12    1
 -0.0002919938758996705   13    3   12    3
 0.01166629467996868   13    3   12   12
 -0.0134736553764656   13    3   13    1
 0.02890946045351537   13    3   13    3
 -0.0179643564279912   13    4    4    1
 -0.0003069378074117076   13    4    4    3
 -0.01141677295547678   13    4    7    2
 0.005378162381107771   13    4    8    7
 0.006060969072584402   13    4    9    7
 -0.0141230757996322   13    4   10    1
 -0.002924532545350585   13    4   10    3
 0.001837178676739104   13    4   12    4
 0.0006800271235765619   13    4   12   10
 0.02981049048133616   13    4   13    4
 -0.01796435642799121   13    5    5    1
 -0.0003069378074117078   13    5    5    3
 -0.01141677295547678   13    5    6    2
 0.00537816238110778   13    5    8    6
 0.006060969072584396   13    5    9    6
 -0.0141230757996322   13    5   11    1
 -0.002924532545350593   13    5   11    3
 0.001837178676739102   13    5   12    5
 0.000680027123576556   13    5   12   11
 0.02981049048133617   13    5   13    5
 0.002696818617636588   13    6    5    2
 0.003298153078478719   13    6    6    1
 4.826021710146862e-06   13    6    6    3
 -0.002559756218695382   13    6    8    5
 0.002503622480753714   13    6    9    5
 -0.0112532545217422   13    6   11    2
 0.005904037530721848   13    6   11    8
 0.001797466470064007   13    6   11    9
 -0.005458595992078579   13    6   12    6
 0.01260587803239044   13    6   13    6
 0.002696818617636577   13    7    4    2
 0.003298153078478703   13    7    7    1
 4.826021710140959e-06   13    7    7    3
 -0.002559756218695378   13    7    8    4
 0.002503622480753715   13    7    9    4
 -0.01125325452174219   13    7   10    2
 0.005904037530721846   13    7   10    8
 0.001797466470063997   13    7   10    9
 -0.005458595992078578   13    7   12    7
 0.01260587803239043   13    7   13    7
 -0.0149413958651264   13    8    2    1
 0.008580708263868657   13    8    3    2
 -0.01667493167808553   13    8    6    5
 -0.01667493167808553   13    8    7    4
 0.0344259292556376   13    8    8    1
 -0.01548538192133444   13    8    8    3
 0.01889991525826617   13    8    9    1
 -0.01599876761111784   13    8    9    3
 0.02154087867999919   13    8   10    7
 0.0215408786799992   13    8   11    6
 0.002745745257801156   13    8   12    2
 0.01335392684091435   13    8   12    8
 0.009515004027056228   13    8   12    9
 -0.0100721895363099   13    8   13    2
 0.0257980491186715   13    8   13    8
 0.01757093549152542   13    9    2    1
 0.0439076845198117   13    9    3    2
 0.019013383782052   13    9    6    5
 0.01901338378205199   13    9    7    4
 0.0156190673891386   13    9    8    1
 0.01328994898723613   13    9    8    3
 0.01490219481597429   13    9    9    1
 0.01229685871934796   13    9    9    3
 -0.001741409373521839   13    9   10    7
 -0.001741409373521805   13    9   11    6
 -0.0104748667209764   13    9   12    2
 0.01318309780820897   13    9   12    8
 -0.0295440192211581   13    9   12    9
 0.007897426810174574   13    9   13    2
 0.01578843254875328   13    9   13    8
 0.0208693231777313   13    9   13    9
 -0.0564666479096628   13   10    4    1
 -0.006471970841504106   13   10    4    3
 -0.04843892012460378   13   10    7    2
 0.02416761507054337   13   10    8    7
 0.007039025112044043   13   10    9    7
 0.006577830883985952   13   10   10    1
 -0.000625437633337283   13   10   10    3
 0.009759373101229219   13   10   12    4
 -0.009159975027770949   13   10   12   10
 0.02451401720904513   13   10   13    4
 0.05347903287340684   13   10   13   10
 -0.0564666479096628   13   11    5    1
 -0.0064719708415041   13   11    5    3
 -0.04843892012460378   13   11    6    2
 0.02416761507054336   13   11    8    6
 0.007039025112044061   13   11    9    6
 0.006577830883985965   13   11   11    1
 -0.0006254376333373148   13   11   11    3
 0.009759373101229225   13   11   12    5
 -0.009159975027770972   13   11   12   11
 0.02451401720904511   13   11   13    5
 0.05347903287340684   13   11   13   11
 0.03796084789560101   13   12    1    1
 -0.01009543995185334   13   12    2    2
 -0.03244354728374984   13   12    3    1
 -0.0005753166457429719   13   12    3    3
 0.0167741849502231   13   12    4    4
 0.01677418495022308   13   12    5    5
 0.003713543167965539   13   12    6    6
 0.003713543167965574   13   12    7    7
 -0.02010844624346911   13   12    8    2
 0.01914665212516465   13   12    8    8
 -0.0151108087112817   13   12    9    2
 0.01333425370565519   13   12    9    8
 -0.007543107065657981   13   12    9    9
 0.001525400516531277   13   12   10    4
 0.010458886233913   13   12   10   10
 0.001525400516531259   13   12   11    5
 0.01045888623391312   13   12   11   11
 0.008788516227770295   13   12   12    1
 -0.001996966166695303   13   12   12    3
 -0.007121611529129048   13   12   12   12
 0.004387636546248894   13   12   13    1
 -0.01714641202544503   13   12   13    3
 0.01789481536164357   13   12   13   12
 0.5017031341338084   13   13    1    1
 0.420391622369057   13   13    2    2
 -0.05790156747450809   13   13    3    1
 0.4338877170260713   13   13    3    3
 0.4483589975325307   13   13    4    4
 0.4483589975325307   13   13    5    5
 0.4250872356614314   13   13    6    6
 0.4250872356614312   13   13    7    7
 -0.05461473403563926   13   13    8    2
 0.4287997385102079   13   13    8    8
 0.02954648694625092   13   13    9    2
 0.1009999292465974   13   13    9    8
 0.3702584358638368   13   13    9    9
 -0.05973969226373825   13   13   10    4
 0.4107433553990986   13   13   10   10
 -0.05973969226373824   13   13   11    5
 0.4107433553990988   13   13   11   11
 -0.004457718620148978   13   13   12    1
 -0.07656315853521142   13   13   12    3
 0.3484975384782434   13   13   12   12
 0.04329091349761711   13   13   13    1
 -0.01315515111318979   13   13   13    3
 0.02658875832466739   13   13   13   12
 0.4408672985264009   13   13   13   13
 0.01915818305926478   14    1    5    2
 0.02109719439808044   14    1    6    1
 0.003718981353939055   14    1    6    3
 -0.01669871562957823   14    1    8    5
 -0.001230341046674525   14    1    9    5
 -0.01685458053195685   14    1   11    2
 0.012707546080878   14    1   11    8
 0.00195748894517969   14    1   11    9
 -0.008185874712058422   14    1   12    6
 0.01052077131555497   14    1   13    6
 0.01804920372127936   14    1   14    1
 0.0192958147699926   14    2    5    1
 0.003211762883871005   14    2    5    3
 0.01864949610125838   14    2    6    2
 -0.01261079043595816   14    2    8    6
 0.006455192323436568   14    2    9    6
 -0.01749236223075269   14    2   11    1
 -0.007734654547824649   14    2   11    3