 &FCI NORB=  26,NELEC=10,MS2=0,
  ORBSYM=1,1,1,1,1,1,1,1,1,1,1,1,1,1,1,1,1,1,1,1,1,1,1,1,1,1
  ISYM=1,
 &END
 0.8190189948621748    1    1    1    1
 0.05399757326963236    2    1    2    1
 0.5199309368194662    2    2    1    1
 0.536075590792795    2    2    2    2
 -0.1430973602890965    3    1    1    1
 -0.005564754810059062    3    1    2    2
 0.06660196314890456    3    1    3    1
 0.09143689420902276    3    2    2    1
 0.2086155334616737    3    2    3    2
 0.5677080877731792    3    3    1    1
 0.5403528190694895    3    3    2    2
 -0.03300328508678121    3    3    3    1
 0.5625829998324956    3    3    3    3
 0.1006404471411798    4    1    4    1
 0.04156788434386284    4    2    4    2
 0.01107491874549085    4    3    4    1
 0.02357893984202885    4    3    4    3
 0.6329160157129116    4    4    1    1
 0.4925758769179411    4    4    2    2
 -0.06202508601447044    4    4    3    1
 0.5040932849857112    4    4    3    3
 0.5755666859491795    4    4    4    4
 0.1006404471411798    5    1    5    1
 0.04156788434386283    5    2    5    2
 0.01107491874549085    5    3    5    1
 0.02357893984202885    5    3    5    3
 0.02322295108306068    5    4    5    4
 0.6329160157129117    5    5    1    1
 0.4925758769179412    5    5    2    2
 -0.06202508601447042    5    5    3    1
 0.5040932849857112    5    5    3    3
 0.5291207837830582    5    5    4    4
 0.5755666859491795    5    5    5    5
 0.03354885301423695    6    1    5    2
 0.03146895130155385    6    1    6    1
 0.06368317236457653    6    2    5    1
 0.03290455781956782    6    2    5    3
 0.07181124494182085    6    2    6    2
 0.03387940474118807    6    3    5    2
 0.02187867156833951    6    3    6    1
 0.03584171565495304    6    3    6    3
 0.01366367198302237    6    4    6    4
 0.08041364245305169    6    5    2    1
 0.1332541074276423    6    5    3    2
 0.1371464485751785    6    5    6    5
 0.530036963668999    6    6    1    1
 0.4787078392950838    6    6    2    2
 -0.02573281556249232    6    6    3    1
 0.4808798699936395    6    6    3    3
 0.4719425531679278    6    6    4    4
 0.5076781991914486    6    6    5    5
 0.4790800805720976    6    6    6    6
 0.03354885301423699    7    1    4    2
 0.03146895130155394    7    1    7    1
 0.06368317236457659    7    2    4    1
 0.03290455781956784    7    2    4    3
 0.07181124494182095    7    2    7    2
 0.03387940474118808    7    3    4    2
 0.02187867156833952    7    3    7    1
 0.03584171565495306    7    3    7    3
 0.08041364245305177    7    4    2    1
 0.1332541074276425    7    4    3    2
 0.1098191046091339    7    4    6    5
 0.1371464485751788    7    4    7    4
 0.01366367198302239    7    5    6    4
 0.0136636719830224    7    5    7    5
 0.01786782301176039    7    6    5    4
 0.01824286655956733    7    6    7    6
 0.5300369636689998    7    7    1    1
 0.4787078392950843    7    7    2    2
 -0.02573281556249253    7    7    3    1
 0.4808798699936402    7    7    3    3
 0.5076781991914493    7    7    4    4
 0.4719425531679284    7    7    5    5
 0.4425943474529634    7    7    6    6
 0.4790800805720985    7    7    7    7
 -0.03246295459992381    8    1    2    1
 -0.03821158198355366    8    1    3    2
 -0.04915705118388907    8    1    6    5
 -0.04915705118388919    8    1    7    4
 0.02723267310809281    8    1    8    1
 -0.09870313665484562    8    2    1    1
 -0.05360334749272321    8    2    2    2
 0.01719589974486838    8    2    3    1
 -0.05291720944856839    8    2    3    3
 -0.07933805712113209    8    2    4    4
 -0.07933805712113202    8    2    5    5
 -0.05968937730021299    8    2    6    6
 -0.05968937730021302    8    2    7    7
 0.03441214227589066    8    2    8    2
 0.006679078893363084    8    3    2    1
 0.02214540172588684    8    3    3    2
 0.009421950112664447    8    3    6    5
 0.009421950112664491    8    3    7    4
 0.001019914373883115    8    3    8    1
 0.02330874451371521    8    3    8    3
 -0.01962955809270862    8    4    4    2
 -0.01945962319776754    8    4    7    1
 -0.009944250320055735    8    4    7    3
 0.01426761680642293    8    4    8    4
 -0.01962955809270863    8    5    5    2
 -0.01945962319776753    8    5    6    1
 -0.009944250320055742    8    5    6    3
 0.01426761680642296    8    5    8    5
 -0.03230126556893981    8    6    5    1
 -0.005306112026583831    8    6    5    3
 -0.0211079432908325    8    6    6    2
 0.01759004843903063    8    6    8    6
 -0.03230126556893987    8    7    4    1
 -0.00530611202658383    8    7    4    3
 -0.02110794329083257    8    7    7    2
 0.01759004843903033    8    7    8    7
 0.3721564792959536    8    8    1    1
 0.3674183271202511    8    8    2    2
 -0.008784859374359348    8    8    3    1
 0.3738823261535182    8    8    3    3
 0.3504364612791264    8    8    4    4
 0.3504364612791265    8    8    5    5
 0.3444265003309775    8    8    6    6
 0.344426500330977    8    8    7    7
 3.200298408246855e-15    8    8    8    1
 -0.001740185358992607    8    8    8    2
 3.518741037566372e-15    8    8    8    3
 0.3491073180888074    8    8    8    8
 0.08965480083391594    9    1    1    1
 0.02316673328383849    9    1    2    2
 -0.04065235207419547    9    1    3    1
 0.04554395498624646    9    1    3    3
 0.03338799482895249    9    1    4    4
 0.03338799482895248    9    1    5    5
 0.02271884663731378    9    1    6    6
 0.02271884663731388    9    1    7    7
 -0.005865466913455629    9    1    8    2
 0.01797374956210724    9    1    8    8
 0.03943705031610158    9    1    9    1
 -0.00204957823557595    9    2    2    1
 0.007034571842457427    9    2    3    2
 -0.004404949174860164    9    2    6    5
 -0.004404949174860186    9    2    7    4
 0.007074374922157169    9    2    8    1
 0.01744960706080995    9    2    8    3
 -1.375759121308404e-15    9    2    8    8
 0.01569811824364167    9    2    9    2
 -0.1303198492287068    9    3    1    1
 -0.04926774690776866    9    3    2    2
 0.03932837445402658    9    3    3    1
 -0.06266332056458847    9    3    3    3
 -0.08314975595950626    9    3    4    4
 -0.08314975595950627    9    3    5    5
 -0.05695786304819934    9    3    6    6
 -0.05695786304819955    9    3    7    7
 0.03442326203955891    9    3    8    2
 -0.00269282420746719    9    3    8    8
 -0.02362202562585422    9    3    9    1
 0.04673556834822484    9    3    9    3
 -0.02449606223490058    9    4    4    1
 -0.01006857260315517    9    4    4    3
 -0.02017843841233101    9    4    7    2
 0.01080795769729746    9    4    8    7
 0.01983986955007282    9    4    9    4
 -0.02449606223490058    9    5    5    1
 -0.01006857260315518    9    5    5    3
 -0.020178438412331    9    5    6    2
 0.01080795769729745    9    5    8    6
 0.01983986955007282    9    5    9    5
 -0.005101685998878148    9    6    5    2
 -0.003797107623641536    9    6    6    1
 -0.002296041774632205    9    6    6    3
 0.005492600259915427    9    6    8    5
 0.007142235605323855    9    6    9    6
 -0.005101685998878165    9    7    4    2
 -0.003797107623641549    9    7    7    1
 -0.002296041774632239    9    7    7    3
 0.005492600259915449    9    7    8    4
 0.00714223560532385    9    7    9    7
 0.0351419311739044    9    8    2    1
 0.08817942138435218    9    8    3    2
 0.05320587624147851    9    8    6    5
 0.05320587624147875    9    8    7    4
 -0.006115722170009382    9    8    8    1
 0.03589821157652374    9    8    8    3
 -3.510929080324654e-15    9    8    8    8
 0.02374755626457704    9    8    9    2
 0.08619551231162234    9    8    9    8
 0.4688219095174567    9    9    1    1
 0.3962050128939102    9    9    2    2
 -0.0379087187998214    9    9    3    1
 0.4119493500831476    9    9    3    3
 0.4163125364193982    9    9    4    4
 0.4163125364193981    9    9    5    5
 0.3847393194461183    9    9    6    6
 0.3847393194461187    9    9    7    7
 -0.0275203534435629    9    9    8    2
 0.3375792449776457    9    9    8    8
 0.0254220947562503    9    9    9    1
 -0.03687305821205699    9    9    9    3
 0.3713947554000496    9    9    9    9
 -0.03917589682310148   10    1    4    1
 0.00379573990775879   10    1    4    3
 -0.01751093601647381   10    1    7    2
 0.01408766510202828   10    1    8    7
 -0.001581387048349624   10    1    9    4
 0.02789534673089078   10    1   10    1
 -0.009319056785124352   10    2    4    2
 -0.008837218001257679   10    2    7    1
 -0.002942710222317167   10    2    7    3
 0.00824589583783013   10    2    8    4
 0.003348566512634104   10    2    9    7
 0.01205615872135543   10    2   10    2
 0.01755163795116677   10    3    4    1
 -0.002236878765814734   10    3    4    3
 0.007759888294869665   10    3    7    2
 -0.0001479197618522004   10    3    8    7
 -0.002237100552825796   10    3    9    4
 -0.003768929636021716   10    3   10    1
 0.01195887552329669   10    3   10    3
 -0.1600790039166493   10    4    1    1
 -0.09048795380835037   10    4    2    2
 0.03670558586436287   10    4    3    1
 -0.1023309758304944   10    4    3    3
 -0.1139269634185213   10    4    4    4
 -0.1061872098319469   10    4    5    5
 -0.0835533754199824   10    4    6    6
 -0.08756592866275757   10    4    7    7
 0.03246171794541513   10    4    8    2
 -0.03970303775230428   10    4    8    8
 -0.03212807075291817   10    4    9    1
 0.0398526655045641   10    4    9    3
 -0.05228250570977642   10    4    9    9
 0.07638494483643631   10    4   10    4
 -0.00386987679328718   10    5    5    4
 -0.002006276621387411   10    5    7    6
 0.008192883766761102   10    5   10    5
 -0.002424037193728335   10    6    6    4
 -0.002424037193728347   10    6    7    5
 0.006524279019427451   10    6   10    6
 -0.02281186602038424   10    7    2    1
 -0.0244479998095437   10    7    3    2
 -0.03008514168013124   10    7    6    5
 -0.03493321606758802   10    7    7    4
 0.02280189744944847   10    7    8    1
 0.008874009749760135   10    7    8    3
 0.01122655548401239   10    7    9    2
 0.01214438596008195   10    7    9    8
 0.04498199789466276   10    7   10    7
 0.01386018754310396   10    8    4    2
 0.01268107489255732   10    8    7    1
 0.01028042787693245   10    8    7    3
 -0.005760324266591233   10    8    8    4
 0.0029299614950188   10    8    9    7
 -0.003974192877451941   10    8   10    2
 0.009501607115015728   10    8   10    8
 -0.02485064934621781   10    9    4    1
 0.00142115188706844   10    9    4    3
 -0.008901931957507409   10    9    7    2
 0.01003797890989822   10    9    8    7
 0.01249623373292646   10    9    9    4
 0.004646275077124831   10    9   10    1
 -0.00741905896603755   10    9   10    3
 0.0183783273966341   10    9   10    9
 0.5098984862002086   10   10    1    1
 0.4187808742404288   10   10    2    2
 -0.04170899513312699   10   10    3    1
 0.4278539417784364   10   10    3    3
 0.473233518902764   10   10    4    4
 0.4419490457483072   10   10    5    5
 0.404504793073118   10   10    6    6
 0.4316910092318819   10   10    7    7
 -0.05489731499216235   10   10    8    2
 0.3160882304844998   10   10    8    8
 0.0246052230188923   10   10    9    1
 -0.06008262530732609   10   10    9    3
 0.3683757246490514   10   10    9    9
 -0.07193430043484418   10   10   10    4
 0.4211238412170127   10   10   10   10
 -0.03917589682310128   11    1    5    1
 0.003795739907758739   11    1    5    3
 -0.01751093601647373   11    1    6    2
 0.01408766510202819   11    1    8    6
 -0.001581387048349658   11    1    9    5
 0.0278953467308906   11    1   11    1
 -0.009319056785124484   11    2    5    2
 -0.008837218001257734   11    2    6    1
 -0.002942710222317296   11    2    6    3
 0.008245895837830149   11    2    8    5
 0.003348566512634114   11    2    9    6
 0.01205615872135546   11    2   11    2
 0.01755163795116656   11    3    5    1
 -0.002236878765814829   11    3    5    3
 0.007759888294869456   11    3    6    2
 -0.0001479197618521419   11    3    8    6
 -0.002237100552825751   11    3    9    5
 -0.00376892963602159   11    3   11    1
 0.01195887552329664   11    3   11    3
 -0.00386987679328716   11    4    5    4
 -0.002006276621387418   11    4    7    6
 0.008192883766761102   11    4   10    5
 0.008192883766761102   11    4   11    4
 -0.1600790039166489   11    5    1    1
 -0.09048795380835042   11    5    2    2
 0.0367055858643627   11    5    3    1
 -0.1023309758304945   11    5    3    3
 -0.1061872098319467   11    5    4    4
 -0.1139269634185211   11    5    5    5
 -0.08756592866275723   11    5    6    6
 -0.08355337541998265   11    5    7    7
 0.03246171794541509   11    5    8    2
 -0.03970303775230383   11    5    8    8
 -0.03212807075291815   11    5    9    1
 0.03985266550456403   11    5    9    3
 -0.05228250570977624   11    5    9    9
 0.05999917730291403   11    5   10    4
 -0.07328313841122056   11    5   10   10
 0.07638494483643622   11    5   11    5
 -0.0228118660203843   11    6    2    1
 -0.02444799980954389   11    6    3    2
 -0.03493321606758799   11    6    6    5
 -0.03008514168013132   11    6    7    4
 0.02280189744944853   11    6    8    1
 0.008874009749760117   11    6    8    3
 0.01122655548401237   11    6    9    2
 0.01214438596008206   11    6    9    8
 0.03193343985580789   11    6   10    7
 0.0449819978946628   11    6   11    6
 -0.002424037193728375   11    7    6    4
 -0.002424037193728388   11    7    7    5
 0.006524279019427458   11    7   10    6
 0.006524279019427461   11    7   11    7
 0.01386018754310396   11    8    5    2
 0.0126810748925573   11    8    6    1
 0.01028042787693247   11    8    6    3
 -0.005760324266591186   11    8    8    5
 0.002929961495018774   11    8    9    6
 -0.003974192877451995   11    8   11    2
 0.009501607115015966   11    8   11    8
 -0.02485064934621785   11    9    5    1
 0.001421151887068421   11    9    5    3
 -0.008901931957507443   11    9    6    2
 0.01003797890989825   11    9    8    6
 0.0124962337329265   11    9    9    5
 0.00464627507712475   11    9   11    1
 -0.007419058966037548   11    9   11    3
 0.01837832739663413   11    9   11    9
 0.0156422365772284   11   10    5    4
 0.01359310807938161   11   10    7    6
 0.0006744189881882452   11   10   10    5
 0.0006744189881882539   11   10   11    4
 0.0164115678456361   11   10   11   10
 0.5098984862002084   11   11    1    1
 0.4187808742404287   11   11    2    2
 -0.04170899513312686   11   11    3    1
 0.4278539417784364   11   11    3    3
 0.4419490457483071   11   11    4    4
 0.4732335189027639   11   11    5    5
 0.4316910092318812   11   11    6    6
 0.4045047930731184   11   11    7    7
 -0.05489731499216197   11   11    8    2
 0.3160882304844982   11   11    8    8
 0.02460522301889221   11   11    9    1
 -0.0600826253073261   11   11    9    3
 0.3683757246490514   11   11    9    9
 -0.07328313841122067   11   11   10    4
 0.3883007055257404   11   11   10   10
 -0.0719343004348441   11   11   11    5
 0.4211238412170127   11   11   11   11
 0.0827159412575436   12    1    1    1
 0.05133342802336621   12    1    2    2
 -0.02037326449731478   12    1    3    1
 0.06059577979540684   12    1    3    3
 0.05129336870232538   12    1    4    4
 0.05129336870232538   12    1    5    5
 0.04307902748618433   12    1    6    6
 0.04307902748618447   12    1    7    7
 -0.01571889925540628   12    1    8    2
 0.0204980478621503   12    1    8    8
 0.02337432841896938   12    1    9    1
 -0.02215630635195141   12    1    9    3
 0.02531374117133509   12    1    9    9
 -0.0368157644897434   12    1   10    4
 0.03511597603459635   12    1   10   10
 -0.03681576448974339   12    1   11    5
 0.03511597603459631   12    1   11   11
 0.02380479139756992   12    1   12    1
 0.04001583682520961   12    2    2    1
 0.0839334096537119   12    2    3    2
 0.05534611389058475   12    2    6    5
 0.05534611389058483   12    2    7    4
 -0.02437646625287987   12    2    8    1
 -0.008079484053240162   12    2    8    3
 -0.01205220701832425   12    2    9    2
 0.006469083959904935   12    2    9    8
 -0.03633101580221888   12    2   10    7
 -0.03633101580221895   12    2   11    6
 0.063105054065438   12    2   12    2
 0.05307979191396335   12    3    1    1
 0.09431556107478636   12    3    2    2
 0.01080746552518191   12    3    3    1
 0.09413594405335043   12    3    3    3
 0.05860679269538247   12    3    4    4
 0.05860679269538246   12    3    5    5
 0.06009270521552849   12    3    6    6
 0.06009270521552867   12    3    7    7
 -0.02153401503242106   12    3    8    2
 0.02046207910956294   12    3    8    8
 0.002540822785553601   12    3    9    1
 -0.01931168288154776   12    3    9    3
 0.02576379249631086   12    3    9    9
 -0.03301863559630825   12    3   10    4
 0.04066912200472195   12    3   10   10
 -0.03301863559630837   12    3   11    5
 0.04066912200472211   12    3   11   11
 0.02064356791635054   12    3   12    1
 0.05558150049330814   12    3   12    3
 -0.005749369492531269   12    4    4    1
 -0.0002498550377780789   12    4    4    3
 -0.001293238917931869   12    4    7    2
 -0.002810859578465933   12    4    8    7
 0.01127164114752849   12    4    9    4
 -0.01135266636753673   12    4   10    1
 -0.01027652749729185   12    4   10    3
 0.01042390239283404   12    4   10    9
 0.0212130823923227   12    4   12    4
 -0.005749369492531272   12    5    5    1
 -0.0002498550377780803   12    5    5    3
 -0.001293238917931895   12    5    6    2
 -0.002810859578465926   12    5    8    6
 0.01127164114752849   12    5    9    5
 -0.01135266636753676   12    5   11    1
 -0.01027652749729187   12    5   11    3
 0.01042390239283408   12    5   11    9
 0.0212130823923227   12    5   12    5
 0.006763371875770579   12    6    5    2
 0.005177700961083154   12    6    6    1
 0.002522987118489913   12    6    6    3
 -0.006041818665904246   12    6    8    5
 -0.002723716190609639   12    6    9    6
 -0.01365217838568968   12    6   11    2
 0.002769869657358412   12    6   11    8
 0.01781190862429702   12    6   12    6
 0.006763371875770635   12    7    4    2
 0.005177700961083221   12    7    7    1
 0.002522987118489981   12    7    7    3
 -0.006041818665904265   12    7    8    4
 -0.002723716190609639   12    7    9    7
 -0.01365217838568966   12    7   10    2
 0.002769869657358439   12    7   10    8
 0.01781190862429703   12    7   12    7
 -0.03246172436018347   12    8    2    1
 -0.07067275223564266   12    8    3    2
 -0.04801559267410369   12    8    6    5
 -0.04801559267410387   12    8    7    4
 0.01290935756887682   12    8    8    1
 -0.02162169443140995   12    8    8    3
 9.188001253443558e-15   12    8    8    8
 -0.01277417859528713   12    8    9    2
 -0.05222573990807085   12    8    9    8
 0.006736780924036406   12    8   10    7
 0.006736780924036463   12    8   11    6
 -0.01997017225200908   12    8   12    2
 0.04024930836775528   12    8   12    8
 0.06067837707268078   12    9    1    1
 -0.003239181830851651   12    9    2    2
 -0.0216131726436217   12    9    3    1
 -0.001435544780196994   12    9    3    3
 0.04121395747525695   12    9    4    4
 0.04121395747525695   12    9    5    5
 0.01702958947359281   12    9    6    6
 0.01702958947359277   12    9    7    7
 -0.01907219607033469   12    9    8    2
 -0.01727684051894015   12    9    8    8
 -0.002032742205400303   12    9    9    1
 -0.02134825391651092   12    9    9    3
 -1.05007409132927e-15   12    9    9    8
 0.01671439974436009   12    9    9    9
 -0.001298301691237075   12    9   10    4
 0.03101994082650803   12    9   10   10
 -0.001298301691236941   12    9   11    5
 0.03101994082650795   12    9   11   11
 -0.003177055914710641   12    9   12    1
 -0.009400157091879684   12    9   12    3
 0.03457865492753263   12    9   12    9
 -0.05209822447863517   12   10    4    1
 -0.02093147396361824   12   10    4    3
 -0.04997649648355837   12   10    7    2
 0.01466604452425507   12   10    8    7
 0.02172990354143203   12   10    9    4
 0.008719047423531688   12   10   10    1
 -0.01190835806106946   12   10   10    3
 0.01723985401760126   12   10   10    9
 0.01290583516702103   12   10   12    4
 0.04978245974825715   12   10   12   10
 -0.05209822447863525   12   11    5    1
 -0.02093147396361829   12   11    5    3
 -0.04997649648355842   12   11    6    2
 0.01466604452425499   12   11    8    6
 0.02172990354143207   12   11    9    5
 0.008719047423531655   12   11   11    1
 -0.01190835806106932   12   11   11    3
 0.01723985401760131   12   11   11    9
 0.01290583516702102   12   11   12    5
 0.04978245974825726   12   11   12   11
 0.4705829401341244   12   12    1    1
 0.4526550972506039   12   12    2    2
 -0.01485415518689621   12   12    3    1
 0.4585805913815816   12   12    3    3
 0.4431030145856116   12   12    4    4
 0.4431030145856116   12   12    5    5
 0.4215391933218657   12   12    6    6
 0.4215391933218661   12   12    7    7
 -0.04489288677897927   12   12    8    2
 0.333579342030662   12   12    8    8
 0.01519534694240565   12   12    9    1
 -0.04576693860809573   12   12    9    3
 0.3702612665004928   12   12    9    9
 -0.06376474184549784   12   12   10    4
 0.3908238497937578   12   12   10   10
 -0.06376474184549789   12   12   11    5
 0.3908238497937578   12   12   11   11
 0.03351364011676292   12   12   12    1
 0.06344303654793874   12   12   12    3
 -1.266078784441559e-15   12   12   12    8
 0.01085474551188789   12   12   12    9
 0.4085946244510129   12   12   12   12
 0.01896365863903057   13    1    5    2
 0.02048539679891793   13    1    6    1
 0.007683683521416687   13    1    6    3
 -0.01417259426648228   13    1    8    5
 -0.001684466315524895   13    1    9    6
 -0.0116604784622925   13    1   11    2
 0.009402631602269914   13    1   11    8
 0.01077435934246308   13    1   12    6
 0.01891908286987196   13    1   13    1
 0.02350055992192902   13    2    5    1
 0.008237377526107214   13    2    5    3
 0.02095621406196919   13    2    6    2
 -0.01483227351666854   13    2    8    6
 -0.004449495764046211   13    2    9    5
 -0.01636738775826947   13    2   11    1
 -0.007189721887768953   13    2   11    3
 -0.001123945101824143   13    2   11    9
 0.01459908724154907   13    2   12    5
 -0.008001652919971815   13    2   12   11
 0.02212657093113679   13    2   13    2
 0.007931022312703252   13    3    5    2
 0.003050281180905236   13    3    6    1
 0.007455300101127254   13    3    6    3
 -0.004422632833405903   13    3    8    5
 -0.005355705391846138   13    3    9    6
 -0.009472758511428854   13    3   11    2
 1.48632411622959e-05   13    3   11    8
 0.01263138896147061   13    3   12    6
 0.004489151227306616   13    3   13    1
 0.01288258278483242   13    3   13    3
 0.006152878123221709   13    4    6    4
 0.006152878123221724   13    4    7    5
 -0.006480188536576965   13    4   10    6
 -0.006480188536576981   13    4   11    7
 0.007547064474784137   13    4   13    4
 0.04488183736265199   13    5    2    1
 0.0633079104276664   13    5    3    2
 0.07279295593598048   13    5    6    5
 0.06048719968953711   13    5    7    4
 -0.03511153062165553   13    5    8    1
 -0.004319403146920974   13    5    8    3
 1.912050850708234e-15   13    5    8    8
 -0.01076393428359354   13    5    9    2
 0.006279461782151803   13    5    9    8
 -0.03748611173806849   13    5   10    7
 -0.05044648881122245   13    5   11    6
 0.04933632563775533   13    5   12    2
 -0.02135617771166597   13    5   12    8
 0.06690932171800974   13    5   13    5
 0.1645506380419944   13    6    1    1
 0.1117662480546673   13    6    2    2
 -0.02745927663784985   13    6    3    1
 0.1181659145066259   13    6    3    3
 0.1211620858268376   13    6    4    4
 0.1326985783175035   13    6    5    5
 0.1058819122645547   13    6    6    6
 0.09864765200246971   13    6    7    7
 -0.04047404452820843   13    6    8    2
 0.04091522027421721   13    6    8    8
 0.02381189438503111   13    6    9    1
 -0.04399980693966177   13    6    9    3
 0.06027732351528157   13    6    9    9
 -0.06177167026428491   13    6   10    4
 0.08545629041231757   13    6   10   10
 -0.07680367276915721   13    6   11    5
 0.08726763463625833   13    6   11   11
 0.0365684928186138   13    6   12    1
 0.04460701682528304   13    6   12    3
 0.006601149955124407   13    6   12    9
 0.08088686753306548   13    6   12   12
 0.08762193380911813   13    6   13    6
 0.005768246245332917   13    7    5    4
 0.003617130131042666   13    7    7    6
 -0.007516001252436142   13    7   10    5
 -0.007516001252436147   13    7   11    4
 0.0009056721119704058   13    7   11   10
 0.009001491462351853   13    7   13    7
 -0.02945329586172756   13    8    5    1
 -0.01059319170903894   13    8    5    3
 -0.02918066740861931   13    8    6    2
 0.005446515449091718   13    8    8    6
 0.003746837702867468   13    8    9    5
 0.01204111267712006   13    8   11    1
 -0.005698448294729737   13    8   11    3
 0.0004048287530766177   13    8   11    9
 -0.00108831053257743   13    8   12    5
 0.02162754878385437   13    8   12   11
 -0.007637481543986197   13    8   13    2
 0.01915715756583613   13    8   13    8
 -0.006770696669681314   13    9    5    2
 -0.002350436124341297   13    9    6    1
 -0.01033859294922204   13    9    6    3
 -0.001418550100370054   13    9    8    5
 -0.002626050247270834   13    9    9    6
 -0.001082301472463037   13    9   11    2
 -0.004958867470432897   13    9   11    8
 0.001447135727686658   13    9   12    6
 0.001171650869952089   13    9   13    1
 -0.0006426953411888182   13    9   13    3
 0.007996046025281464   13    9   13    9
 -0.009912559303252738   13   10    6    4
 -0.009912559303252749   13   10    7    5
 0.001091212439849308   13   10   10    6
 0.00109121243984934   13   10   11    7
 -0.004011014221336044   13   10   13    4
 0.0101266153017461   13   10   13   10
 -0.0669145158527325   13   11    2    1
 -0.1127376441123835   13   11    3    2
 -0.114794185911139   13   11    6    5
 -0.09496906730463364   13   11    7    4
 0.04124159721000178   13   11    8    1
 -0.01307115582390327   13   11    8    3
 -1.08022580327034e-15   13   11    8    8
 0.0004304459857009002   13   11    9    2
 -0.05033942723534767   13   11    9    8
 0.02596448837072367   13   11   10    7
 0.02814691325042229   13   11   11    6
 -0.04581103631066056   13   11   12    2
 0.04688220094027548   13   11   12    8
 -0.06064858615547523   13   11   13    5
 0.1096536817103291   13   11   13   11
 0.03122407102935624   13   12    5    2
 0.02393125474616438   13   12    6    1
 0.02833996556576941   13   12    6    3
 -0.01176362817905725   13   12    8    5
 -0.0009348009064273199   13   12    9    6
 -0.003806722307103317   13   12   11    2
 0.01269261208570383   13   12   11    8
 0.0005390873616426269   13   12   12    6
 0.01145661082767099   13   12   13    1
 0.002858928026547395   13   12   13    3
 -0.008539442865577177   13   12   13    9
 0.03106179802406052   13   12   13   12
 0.502523116971729   13   13    1    1
 0.4421466900691131   13   13    2    2
 -0.03193196519911451   13   13    3    1
 0.449183621577581   13   13    3    3
 0.4437172136312303   13   13    4    4
 0.4715264751649469   13   13    5    5
 0.4441177847412455   13   13    6    6
 0.4153857590883046   13   13    7    7
 -0.05345018775783024   13   13    8    2
 0.3297569247536076   13   13    8    8
 0.02911263495187782   13   13    9    1
 -0.05635995640835228   13   13    9    3
 -1.097598270776755e-15   13   13    9    8
 0.365740538716003   13   13    9    9
 -0.08297494382059911   13   13   10    4
 0.3884338113275327   13   13   10   10
 -0.08749178173978943   13   13   11    5
 0.415693591488489   13   13   11   11
 0.04388807277032399   13   13   12    1
 0.05475840254690312   13   13   12    3
 0.01184423411969667   13   13   12    9
 0.3988702842709686   13   13   12   12
 0.09988873792714563   13   13   13    6
 0.430680936805324   13   13   13   13
 0.0189636586390305   14    1    4    2
 0.0204853967989179   14    1    7    1
 0.007683683521416665   14    1    7    3
 -0.01417259426648224   14    1    8    4
 -0.001684466315524876   14    1    9    7
 -0.01166047846229244   14    1   10    2
 0.009402631602269883   14    1   10    8
 0.01077435934246309   14    1   12    7
 0.01891908286987183   14    1   14    1
 0.02350055992192891   14    2    4    1
 0.008237377526107191   14    2    4    3
 0.02095621406196916   14    2    7    2
 -0.01483227351666852   14    2    8    7
 -0.004449495764046182   14    2    9    4
 -0.01636738775826944   14    2   10    1
 -0.007189721887768893   14    2   10    3
 -0.001123945101824105   14    2   10    9
 0.01459908724154908   14    2   12    4
 -0.008001652919971691   14    2   12   10
 0.02212657093113673   14    2   14    2
 0.007931022312703243   14    3    4    2
 0.003050281180905241   14    3    7    1
 0.007455300101127263   14    3    7    3
 -0.004422632833405886   14    3    8    4
 -0.005355705391846135   14    3    9    7
 -0.009472758511428815   14    3   10    2
 1.486324116222495e-05   14    3   10    8
 0.01263138896147063   14    3   12    7
 0.004489151227306623   14    3   14    1
 0.01288258278483242   14    3   14    3
 0.04488183736265181   14    4    2    1
 0.06330791042766616   14    4    3    2
 0.06048719968953683   14    4    6    5
 0.07279295593598037   14    4    7    4
 -0.03511153062165537   14    4    8    1
 -0.004319403146920959   14    4    8    3
 1.681269768654029e-15   14    4    8    8
 -0.01076393428359351   14    4    9    2
 0.006279461782151681   14    4    9    8
 -0.05044648881122228   14    4   10    7
 -0.03748611173806844   14    4   11    6