 &FCI NORB=  26,NELEC=10,MS2=0,
  ORBSYM=1,1,1,1,1,1,1,1,1,1,1,1,1,1,1,1,1,1,1,1,1,1,1,1,1,1
  ISYM=1,
 &END
 0.4271882284997709    1    1    1    1
 0.2676202919926595    2    1    2    1
 0.4279344662708444    2    2    1    1
 0.4292862928820934    2    2    2    2
 -0.007974688860118323    3    1    1    1
 -0.001749196659066361    3    1    2    2
 0.06725953390321177    3    1    3    1
 0.02663065919965916    3    2    2    1
 0.06316844029657999    3    2    3    2
 0.4010924489711196    3    3    1    1
 0.4012314114191779    3    3    2    2
 -0.008652055328556932    3    3    3    1
 0.4026619905010574    3    3    3    3
 0.06717569294711269    4    1    4    1
 0.06511933204024398    4    2    4    2
 0.0007110077818325    4    3    4    1
 0.01618552647506283    4    3    4    3
 0.4029850480173404    4    4    1    1
 0.4037096533860952    4    4    2    2
 -0.006863603983769986    4    4    3    1
 0.3705789130115005    4    4    3    3
 0.4047114548005377    4    4    4    4
 0.06717569294711269    5    1    5    1
 0.06511933204024395    5    2    5    2
 0.0007110077818325002    5    3    5    1
 0.01618552647506284    5    3    5    3
 0.01637900755420757    5    4    5    4
 0.4029850480173404    5    5    1    1
 0.4037096533860951    5    5    2    2
 -0.006863603983769985    5    5    3    1
 0.3705789130115005    5    5    3    3
 0.3719534396921226    5    5    4    4
 0.4047114548005377    5    5    5    5
 0.06512684077927679    6    1    5    2
 0.06514951394516712    6    1    6    1
 0.06767779628298223    6    2    5    1
 0.001704560655943086    6    2    5    3
 0.06825165183247794    6    2    6    2
 0.002939787191409673    6    3    5    2
 0.002457020459243067    6    3    6    1
 0.01575551348953865    6    3    6    3
 0.01642107417496436    6    4    6    4
 0.2459580670298533    6    5    2    1
 0.02320975440044956    6    5    3    2
 0.2500372538188826    6    5    6    5
 0.404664020678119    6    6    1    1
 0.4055321292864459    6    6    2    2
 -0.005609014530001754    6    6    3    1
 0.3717141608968441    6    6    3    3
 0.3733696800396178    6    6    4    4
 0.4064185983528373    6    6    5    5
 0.4081870250569981    6    6    6    6
 0.06512684077927683    7    1    4    2
 0.06514951394516721    7    1    7    1
 0.06767779628298227    7    2    4    1
 0.001704560655943088    7    2    4    3
 0.06825165183247804    7    2    7    2
 0.002939787191409676    7    3    4    2
 0.002457020459243071    7    3    7    1
 0.01575551348953866    7    3    7    3
 0.2459580670298535    7    4    2    1
 0.02320975440044957    7    4    3    2
 0.217195105468954    7    4    6    5
 0.250037253818883    7    4    7    4
 0.01642107417496436    7    5    6    4
 0.01642107417496437    7    5    7    5
 0.01652445915660967    7    6    5    4
 0.01667666962468056    7    6    7    6
 0.4046640206781193    7    7    1    1
 0.4055321292864464    7    7    2    2
 -0.005609014530001747    7    7    3    1
 0.3717141608968442    7    7    3    3
 0.4064185983528376    7    7    4    4
 0.3733696800396181    7    7    5    5
 0.3748336858076374    7    7    6    6
 0.4081870250569988    7    7    7    7
 -0.002787831807046303    8    1    2    1
 0.06264532433730018    8    1    3    2
 -0.003611961109470302    8    1    6    5
 -0.003611961109470312    8    1    7    4
 0.06548847145154778    8    1    8    1
 -0.01459706005565206    8    2    1    1
 -0.008406628742657376    8    2    2    2
 0.06833717739529163    8    2    3    1
 -0.0118606902821092    8    2    3    3
 -0.01339680462261418    8    2    4    4
 -0.01339680462261418    8    2    5    5
 -0.01224826533588168    8    2    6    6
 -0.0122482653358817    8    2    7    7
 0.07010115806955963    8    2    8    2
 0.2399936657534269    8    3    2    1
 0.02353234086209452    8    3    3    2
 0.2117887212064261    8    3    6    5
 0.2117887212064262    8    3    7    4
 -0.003222856530211603    8    3    8    1
 0.2381422989648265    8    3    8    3
 -0.002465356501726256    8    4    4    2
 -0.002963976599213903    8    4    7    1
 0.01605278099122762    8    4    7    3
 0.01684455981448013    8    4    8    4
 -0.002465356501726257    8    5    5    2
 -0.0029639765992139    8    5    6    1
 0.01605278099122761    8    5    6    3
 0.01684455981448014    8    5    8    5
 -0.003569015436778329    8    6    5    1
 0.01650571197615692    8    6    5    3
 -0.002616103069410281    8    6    6    2
 0.0172386068893872    8    6    8    6
 -0.003569015436778333    8    7    4    1
 0.01650571197615693    8    7    4    3
 -0.002616103069410286    8    7    7    2
 0.01723860688938722    8    7    8    7
 0.4129509449663992    8    8    1    1
 0.4130495510669163    8    8    2    2
 -0.01184088642191549    8    8    3    1
 0.4118937061206985    8    8    3    3
 0.3805758757064405    8    8    4    4
 0.3805758757064404    8    8    5    5
 0.3818744296657097    8    8    6    6
 0.3818744296657099    8    8    7    7
 -0.01616916006718995    8    8    8    2
 0.4238529354441565    8    8    8    8
 -0.02807299768175272    9    1    1    1
 -0.0266989371065328    9    1    2    2
 0.02199585644009938    9    1    3    1
 -0.01931394248691368    9    1    3    3
 -0.02430695989902396    9    1    4    4
 -0.02430695989902396    9    1    5    5
 -0.02451186064925321    9    1    6    6
 -0.02451186064925328    9    1    7    7
 0.02527599450765896    9    1    8    2
 -0.02648309655827195    9    1    8    8
 0.02716722300122424    9    1    9    1
 -0.030525892058558    9    2    2    1
 0.02319419829654211    9    2    3    2
 -0.02777988636216623    9    2    6    5
 -0.02777988636216627    9    2    7    4
 0.02805588887609345    9    2    8    1
 -0.0266292324752776    9    2    8    3
 0.02525667343963689    9    2    9    2
 0.07979774463130529    9    3    1    1
 0.0815247016540494    9    3    2    2
 0.0056584218106244    9    3    3    1
 0.06870385511140224    9    3    3    3
 0.06686794593854903    9    3    4    4
 0.06686794593854903    9    3    5    5
 0.06813606529888759    9    3    6    6
 0.0681360652988878    9    3    7    7
 0.0008663329575913705    9    3    8    2
 0.07990991601407176    9    3    8    8
 -0.02501503087401079    9    3    9    1
 0.06586296322801151    9    3    9    3
 -0.004098708976364374    9    4    4    1
 0.004195080950406113    9    4    4    3
 -0.004075239737993086    9    4    7    2
 0.005434960817898821    9    4    8    7
 0.009962739318603742    9    4    9    4
 -0.004098708976364375    9    5    5    1
 0.004195080950406114    9    5    5    3
 -0.004075239737993072    9    5    6    2
 0.005434960817898804    9    5    8    6
 0.009962739318603741    9    5    9    5
 -0.005519130405624116    9    6    5    2
 -0.005661329473895239    9    6    6    1
 0.005059122248067698    9    6    6    3
 0.006062913926999121    9    6    8    5
 0.009001195571957473    9    6    9    6
 -0.005519130405624149    9    7    4    2
 -0.005661329473895285    9    7    7    1
 0.005059122248067732    9    7    7    3
 0.006062913926999145    9    7    8    4
 0.009001195571957494    9    7    9    7
 0.1094511124517478    9    8    2    1
 0.001933939665431182    9    8    3    2
 0.0940666235071211    9    8    6    5
 0.09406662350712121    9    8    7    4
 -0.01135192636177627    9    8    8    1
 0.1040129096445235    9    8    8    3
 -0.02532147680511044    9    8    9    2
 0.07651440811529396    9    8    9    8
 0.3862302336529798    9    9    1    1
 0.3826549227802418    9    9    2    2
 -0.04646088956908581    9    9    3    1
 0.386594494435179    9    9    3    3
 0.3614378705976193    9    9    4    4
 0.3614378705976193    9    9    5    5
 0.3616360212822676    9    9    6    6
 0.3616360212822678    9    9    7    7
 -0.04960698445138096    9    9    8    2
 0.3945379551970343    9    9    8    8
 -0.02799121526055302    9    9    9    1
 0.05751590252147971    9    9    9    3
 0.4133960588387328    9    9    9    9
 -0.02263308242422609   10    1    4    1
 -0.001272077567760365   10    1    4    3
 -0.02309281068953869   10    1    7    2
 0.001010238857209026   10    1    8    7
 0.007405993295575527   10    1    9    4
 0.02083455871706408   10    1   10    1
 -0.02412617125232272   10    2    4    2
 -0.02410693590181226   10    2    7    1
 -0.001185492984084334   10    2    7    3
 0.001288586934620728   10    2    8    4
 0.00661908579783834   10    2    9    7
 0.02090948500262533   10    2   10    2
 -0.002640563904657115   10    3    4    1
 -0.003606954100027876   10    3    4    3
 -0.002762795601671566   10    3    7    2
 -0.004075271903847673   10    3    8    7
 -0.00727373213644119   10    3    9    4
 0.0005033156137888424   10    3   10    1
 0.007824192942624677   10    3   10    3
 -0.09207116785317104   10    4    1    1
 -0.09330349831542249   10    4    2    2
 -0.002450750897905237   10    4    3    1
 -0.07439164723127367   10    4    3    3
 -0.08687736366539801   10    4    4    4
 -0.07790837003443148   10    4    5    5
 -0.07895727692763818   10    4    6    6
 -0.08818675144663722   10    4    7    7
 0.00194282784080552   10    4    8    2
 -0.08159004186211215   10    4    8    8
 0.01979787650060002   10    4    9    1
 -0.04989669585460273   10    4    9    3
 -0.07145619776336985   10    4    9    9
 0.06901958612871117   10    4   10    4
 -0.004484496815483266   10    5    5    4
 -0.004614737259499391   10    5    7    6
 0.007595224254969534   10    5   10    5
 -0.004741813075676798   10    6    6    4
 -0.004741813075676814   10    6    7    5
 0.007564252768884542   10    6   10    6
 -0.0927233883219587   10    7    2    1
 -0.006399104139250504   10    7    3    2
 -0.07839827939224252   10    7    6    5
 -0.08788190554359632   10    7    7    4
 0.004506983728947082   10    7    8    1
 -0.07707570980958478   10    7    8    3
 0.01835025433489972   10    7    9    2
 -0.05702912084569255   10    7    9    8
 0.07007289580260051   10    7   10    7
 0.001802251096287574   10    8    4    2
 0.001935240087453167   10    8    7    1
 -0.004740475927145178   10    8    7    3
 -0.005251992919673123   10    8    8    4
 -0.007328076806014454   10    8    9    7
 -0.0006912819285418925   10    8   10    2
 0.007710133909406256   10    8   10    8
 0.019258805896201   10    9    4    1
 -0.01161183246475606   10    9    4    3
 0.01861657932660239   10    9    7    2
 -0.01280183460740745   10    9    8    7
 -0.003164261289313262   10    9    9    4
 -0.004303551865030642   10    9   10    1
 0.001308585711104591   10    9   10    3
 0.01816171568193442   10    9   10    9
 0.3654117452550456   10   10    1    1
 0.3658801009375255   10   10    2    2
 -0.006990965292772683   10   10    3    1
 0.3414483684830227   10   10    3    3
 0.3665929435407912   10   10    4    4
 0.3420287025631952   10   10    5    5
 0.3431984205160137   10   10    6    6
 0.3679360708192563   10   10    7    7
 -0.01221807610894517   10   10    8    2
 0.3496878338354166   10   10    8    8
 -0.02078538264446241   10   10    9    1
 0.05854890548296157   10   10    9    3
 0.3423354633130323   10   10    9    9
 -0.07570769430588881   10   10   10    4
 0.3488603961184077   10   10   10   10
 -0.02263308242422609   11    1    5    1
 -0.001272077567760365   11    1    5    3
 -0.02309281068953864   11    1    6    2
 0.001010238857209024   11    1    8    6
 0.00740599329557553   11    1    9    5
 0.02083455871706408   11    1   11    1
 -0.02412617125232272   11    2    5    2
 -0.02410693590181222   11    2    6    1
 -0.001185492984084332   11    2    6    3
 0.001288586934620728   11    2    8    5
 0.006619085797838328   11    2    9    6
 0.02090948500262533   11    2   11    2
 -0.002640563904657114   11    3    5    1
 -0.003606954100027878   11    3    5    3
 -0.002762795601671564   11    3    6    2
 -0.004075271903847657   11    3    8    6
 -0.007273732136441191   11    3    9    5
 0.0005033156137888417   11    3   11    1
 0.007824192942624679   11    3   11    3
 -0.004484496815483266   11    4    5    4
 -0.004614737259499391   11    4    7    6
 0.007595224254969534   11    4   10    5
 0.007595224254969534   11    4   11    4
 -0.09207116785317104   11    5    1    1
 -0.09330349831542249   11    5    2    2
 -0.002450750897905234   11    5    3    1
 -0.07439164723127369   11    5    3    3
 -0.07790837003443145   11    5    4    4
 -0.086877363665398   11    5    5    5
 -0.08818675144663694   11    5    6    6
 -0.07895727692763838   11    5    7    7
 0.001942827840805523   11    5    8    2
 -0.08159004186211213   11    5    8    8
 0.01979787650060002   11    5    9    1
 -0.04989669585460273   11    5    9    3
 -0.07145619776336984   11    5    9    9
 0.0538291376187721   11    5   10    4
 -0.06970056841898506   11    5   10   10
 0.06901958612871122   11    5   11    5
 -0.0927233883219583   11    6    2    1
 -0.00639910413925046   11    6    3    2
 -0.08788190554359575   11    6    6    5
 -0.07839827939224224   11    6    7    4
 0.00450698372894708   11    6    8    1
 -0.07707570980958442   11    6    8    3
 0.01835025433489967   11    6    9    2
 -0.0570291208456924   11    6    9    8
 0.05494439026483126   11    6   10    7
 0.07007289580260026   11    6   11    6
 -0.004741813075676824   11    7    6    4
 -0.004741813075676839   11    7    7    5
 0.007564252768884549   11    7   10    6
 0.007564252768884555   11    7   11    7
 0.001802251096287575   11    8    5    2
 0.001935240087453166   11    8    6    1
 -0.004740475927145165   11    8    6    3
 -0.005251992919673123   11    8    8    5
 -0.007328076806014445   11    8    9    6
 -0.0006912819285418931   11    8   11    2
 0.007710133909406255   11    8   11    8
 0.019258805896201   11    9    5    1
 -0.01161183246475606   11    9    5    3
 0.01861657932660238   11    9    6    2
 -0.01280183460740745   11    9    8    6
 -0.003164261289313259   11    9    9    5
 -0.004303551865030643   11    9   11    1
 0.001308585711104589   11    9   11    3
 0.01816171568193441   11    9   11    9
 0.01228212048879801   11   10    5    4
 0.0123688251516212   11   10    7    6
 -0.003003562943451887   11   10   10    5
 -0.003003562943451887   11   10   11    4
 0.01238775521078714   11   10   11   10
 0.3654117452550456   11   11    1    1
 0.3658801009375255   11   11    2    2
 -0.006990965292772683   11   11    3    1
 0.3414483684830227   11   11    3    3
 0.3420287025631952   11   11    4    4
 0.3665929435407912   11   11    5    5
 0.3679360708192561   11   11    6    6
 0.343198420516014   11   11    7    7
 -0.01221807610894517   11   11    8    2
 0.3496878338354166   11   11    8    8
 -0.0207853826444624   11   11    9    1
 0.05854890548296159   11   11    9    3
 0.3423354633130323   11   11    9    9
 -0.06970056841898503   11   11   10    4
 0.3240848856968334   11   11   10   10
 -0.07570769430588883   11   11   11    5
 0.3488603961184075   11   11   11   11
 0.02282159247675839   12    1    5    2
 0.02281258483512247   12    1    6    1
 0.0007584648274457282   12    1    6    3
 -0.001632214715018099   12    1    8    5
 -0.006894699238516946   12    1    9    6
 -0.02053088238019848   12    1   11    2
 0.001013232920397744   12    1   11    8
 0.02019840189364017   12    1   12    1
 0.02235275878254623   12    2    5    1
 0.00100763686948421   12    2    5    3
 0.02278339563358879   12    2    6    2
 -0.001212795918346062   12    2    8    6
 -0.007043730338728885   12    2    9    5
 -0.02073947095934626   12    2   11    1
 -0.0009013690312262108   12    2   11    3
 0.004549041488025588   12    2   11    9
 0.02069042213066646   12    2   12    2
 0.000986392564974766   12    3    5    2
 0.0008762997570240747   12    3    6    1
 0.004103254785269029   12    3    6    3
 0.004326581975230542   12    3    8    5
 0.006462137725637094   12    3    9    6
 -0.001085507231354242   12    3   11    2
 -0.00728818742294277   12    3   11    8
 0.0007336968491864831   12    3   12    1
 0.007087301056498368   12    3   12    3
 0.004410607230796382   12    4    6    4
 0.004410607230796396   12    4    7    5
 -0.007527589076483851   12    4   10    6
 -0.007527589076483857   12    4   11    7
 0.007499286875833474   12    4   12    4
 0.08783752685245648   12    5    2    1
 0.005327152166549197   12    5    3    2
 0.08285998827590969   12    5    6    5
 0.074038773814317   12    5    7    4
 -0.005076770082901355   12    5    8    1
 0.07286134080766085   12    5    8    3
 -0.01812784426319379   12    5    9    2
 0.05542773206041376   12    5    9    8
 -0.05362658360945835   12    5   10    7
 -0.06868176176242595   12    5   11    6
 0.06740278867001886   12    5   12    5
 0.09178826039632439   12    6    1    1
 0.09290238851794003   12    6    2    2
 0.001384051452243822   12    6    3    1
 0.07456234048122772   12    6    3    3
 0.07768476938431945   12    6    4    4
 0.08638292436152022   12    6    5    5
 0.08764684409716803   12    6    6    6
 0.07869893700798712   12    6    7    7
 -0.002929614152273243   12    6    8    2
 0.08161293256365802   12    6    8    8
 -0.01966158384217613   12    6    9    1
 0.04926350601125885   12    6    9    3
 0.07271236059343074   12    6    9    9
 -0.05371967754111757   12    6   10    4
 0.06972201823080952   12    6   10   10
 -0.06894754513557748   12    6   11    5
 0.07561864974685292   12    6   11   11
 0.06894165265902413   12    6   12    6
 0.00434907748860038   12    7    5    4
 0.004473953544590585   12    7    7    6
 -0.007613933797229958   12    7   10    5
 -0.007613933797229958   12    7   11    4
 0.002948315758021695   12    7   11   10
 0.00764218497081912   12    7   12    7
 -0.001987237199113983   12    8    5    1
 0.00422296699339985   12    8    5    3
 -0.001844842276068276   12    8    6    2
 0.004938899862439402   12    8    8    6
 0.007662242650224168   12    8    9    5
 0.001298612523512251   12    8   11    1
 -0.007578968449634351   12    8   11    3
 -0.003624536267323987   12    8   11    9
 -0.0009423199078404089   12    8   12    2
 0.007834856839574841   12    8   12    8
 -0.01588497698299518   12    9    5    2
 -0.01623543142276708   12    9    6    1
 0.01004973522201341   12    9    6    3
 0.01170823355877122   12    9    8    5
 0.005178203051416857   12    9    9    6
 0.005393801852249139   12    9   11    2
 -0.00429350709312769   12    9   11    8
 -0.005303805477628869   12    9   12    1
 0.002933982616628176   12    9   12    3
 0.01432806343048024   12    9   12    9
 -0.01218216274745109   12   10    6    4
 -0.01218216274745109   12   10    7    5
 0.003196691854270919   12   10   10    6
 0.003196691854270943   12   10   11    7
 -0.002933883384380979   12   10   12    4
 0.01217062155832967   12   10   12   10
 -0.2085497448205107   12   11    2    1
 -0.02095051724094059   12   11    3    2
 -0.2119621240130927   12   11    6    5
 -0.1875977985181907   12   11    7    4
 0.001900509118585848   12   11    8    1
 -0.1826282502026072   12   11    8    3
 0.02434864979628621   12   11    9    2
 -0.08321156626842235   12   11    9    8
 0.06934408443737966   12   11   10    7
 0.07573746814592111   12   11   11    6
 -0.07141715240935988   12   11   12    5
 0.194557168589089   12   11   12   11
 0.3641720770902789   12   12    1    1
 0.364753797507859   12   12    2    2
 -0.006008317704044835   12   12    3    1
 0.3397875398745355   12   12    3    3
 0.3410165720677137   12   12    4    4
 0.3657284986077489   12   12    5    5
 0.3671140357704624   12   12    6    6
 0.3422195756527591   12   12    7    7
 -0.01132997274222842   12   12    8    2
 0.3482601376703371   12   12    8    8
 -0.02110996944011697   12   12    9    1
 0.05907267038238512   12   12    9    3
 0.339520832982118   12   12    9    9
 -0.0692582750412979   12   12   10    4
 0.3230878227664192   12   12   10   10
 -0.07498095403877185   12   12   11    5
 0.3480340011905026   12   12   11   11
 0.07479901414570499   12   12   12    6
 0.3473770010189919   12   12   12   12
 0.02282159247675827   13    1    4    2
 0.0228125848351224   13    1    7    1
 0.0007584648274457243   13    1    7    3
 -0.001632214715018095   13    1    8    4
 -0.006894699238516949   13    1    9    7
 -0.02053088238019845   13    1   10    2
 0.00101323292039774   13    1   10    8
 0.02019840189364009   13    1   13    1
 0.0223527587825461   13    2    4    1
 0.001007636869484207   13    2    4    3
 0.02278339563358871   13    2    7    2
 -0.00121279591834606   13    2    8    7
 -0.007043730338728886   13    2    9    4
 -0.02073947095934622   13    2   10    1
 -0.0009013690312262058   13    2   10    3
 0.004549041488025555   13    2   10    9
 0.02069042213066639   13    2   13    2
 0.0009863925649747584   13    3    4    2
 0.0008762997570240695   13    3    7    1
 0.004103254785269014   13    3    7    3
 0.004326581975230511   13    3    8    4
 0.006462137725637095   13    3    9    7
 -0.001085507231354239   13    3   10    2
 -0.007288187422942766   13    3   10    8
 0.0007336968491864793   13    3   13    1
 0.007087301056498362   13    3   13    3
 0.08783752685245601   13    4    2    1
 0.005327152166549149   13    4    3    2
 0.07403877381431651   13    4    6    5
 0.08285998827590936   13    4    7    4
 -0.005076770082901353   13    4    8    1
 0.07286134080766046   13    4    8    3
 -0.01812784426319374   13    4    9    2
 0.05542773206041359   13    4    9    8
 -0.06868176176242591   13    4   10    7
 -0.05362658360945807   13    4   11    6
 0.05240421491835176   13    4   12    5
 -0.06554938564059763   13    4   12   11
 0.06740278867001857   13    4   13    4
 0.004410607230796351   13    5    6    4
 0.004410607230796366   13    5    7    5
 -0.007527589076483846   13    5   10    6
 -0.007527589076483853   13    5   11    7
 0.007499286875833472   13    5   12    4
 -0.00293388338438096   13    5   12   10
 0.007499286875833465   13    5   13    5
 0.004349077488600323   13    6    5    4
 0.004473953544590528   13    6    7    6
 -0.007613933797229949   13    6   10    5
 -0.007613933797229949   13    6   11    4
 0.002948315758021648   13    6   11   10
 0.00764218497081911   13    6   12    7
 0.007642184970819099   13    6   13    6
 0.09178826039632436   13    7    1    1
 0.09290238851794   13    7    2    2
 0.00138405145224382   13    7    3    1
 0.07456234048122767   13    7    3    3
 0.08638292436152017   13    7    4    4
 0.07768476938431944   13    7    5    5
 0.07869893700798689   13    7    6    6
 0.08764684409716825   13    7    7    7
 -0.002929614152273244   13    7    8    2
 0.08161293256365798   13    7    8    8
 -0.01966158384217613   13    7    9    1
 0.04926350601125885   13    7    9    3
 0.07271236059343074   13    7    9    9
 -0.06894754513557746   13    7   10    4
 0.07561864974685284   13    7   10   10
 -0.05371967754111754   13    7   11    5
 0.06972201823080952   13    7   11   11
 0.05365728271738587   13    7   12    6
 0.06921439722621853   13    7   12   12
 0.06894165265902411   13    7   13    7
 -0.00198723719911398   13    8    4    1
 0.004222966993399821   13    8    4    3
 -0.001844842276068276   13    8    7    2
 0.004938899862439387   13    8    8    7
 0.007662242650224162   13    8    9    4
 0.00129861252351225   13    8   10    1
 -0.007578968449634346   13    8   10    3
 -0.003624536267323964   13    8   10    9
 -0.0009423199078404045   13    8   13    2
 0.007834856839574831   13    8   13    8
 -0.01588497698299517   13    9    4    2
 -0.01623543142276708   13    9    7    1
 0.01004973522201341   13    9    7    3
 0.01170823355877122   13    9    8    4
 0.005178203051416874   13    9    9    7
 0.00539380185224913   13    9   10    2
 -0.004293507093127678   13    9   10    8
 -0.005303805477628828   13    9   13    1
 0.002933982616628147   13    9   13    3
 0.01432806343048024   13    9   13    9
 -0.2085497448205105   13   10    2    1
 -0.02095051724094058   13   10    3    2
 -0.1875977985181904   13   10    6    5
 -0.2119621240130929   13   10    7    4
 0.001900509118585838   13   10    8    1
 -0.1826282502026071   13   10    8    3
 0.02434864979628617   13   10    9    2
 -0.08321156626842226   13   10    9    8
 0.07573746814592147   13   10   10    7
 0.06934408443737924   13   10   11    6
 -0.06554938564059787   13   10   12    5
 0.1702159254724295   13   10   12   11
 -0.07141715240935942   13   10   13    4
 0.194557168589089   13   10   13   10
 -0.01218216274745109   13   11    6    4
 -0.01218216274745109   13   11    7    5
 0.003196691854270907   13   11   10    6
 0.003196691854270932   13   11   11    7
 -0.002933883384380968   13   11   12    4
 0.01217062155832968   13   11   12   10
 -0.002933883384380944   13   11   13    5
 0.01217062155832968   13   11   13   11
 0.01235596327001757   13   12    5    4
 0.01244723005885176   13   12    7    6
 -0.002861339498736945   13   12   10    5
 -0.002861339498736945   13   12   11    4
 0.01247308921204163   13   12   11   10
 0.002792308459743224   13   12   12    7
 0.002792308459743174   13   12   13    6
 0.0125858720941759   13   12   13   12
 0.3641720770902789   13   13    1    1
 0.364753797507859   13   13    2    2
 -0.006008317704044846   13   13    3    1
 0.3397875398745356   13   13    3    3
 0.3657284986077489   13   13    4    4
 0.3410165720677136   13   13    5    5
 0.3422195756527588   13   13    6    6
 0.3671140357704626   13   13    7    7
 -0.01132997274222842   13   13    8    2
 0.3482601376703371   13   13    8    8
 -0.02110996944011692   13   13    9    1
 0.05907267038238496   13   13    9    3
 0.3395208329821181   13   13    9    9
 -0.07498095403877152   13   13   10    4
 0.3480340011905027   13   13   10   10
 -0.06925827504129774   13   13   11    5
 0.3230878227664193   13   13   11   11
 0.06921439722621836   13   13   12    6
 0.32220525683064   13   13   12   12
 0.07479901414570468   13   13   13    7
 0.3473770010189919   13   13   13   13
 -0.05081691642951498   14    1    2    1
 -0.01919750443486481   14    1    3    2
 -0.04349205798735897   14    1    6    5
 -0.04349205798735904   14    1    7    4
 -0.01399977854875451   14    1    8    1
 -0.04174177757785433   14    1    8    3
 -0.00314363473338505   14    1    9    2
 -0.03034195270835052   14    1    9    8
 0.03508486833049387   14    1   10    7
 0.03508486833049379   14    1   11    6
 -0.03423528457014968   14    1   12    5
 0.03804106994591645   14    1   12   11
 -0.03423528457014961   14    1   13    4
 0.03804106994591642   14    1   13   10
 0.03143971966022863   14    1   14    1
 -0.05688660757852781   14    2    1    1
 -0.05887782685571818   14    2    2    2
 -0.016806335745008   14    2    3    1
 -0.04812891927973096   14    2    3    3
 -0.04952483677249332   14    2    4    4
 -0.04952483677249332   14    2    5    5
 -0.05034999507738835   14    2    6    6
 -0.05034999507738849   14    2    7    7
 -0.01521624609444125   14    2    8    2
 -0.04990973482891045   14    2    8    8
 -0.002232029311950901   14    2    9    1
 -0.02939569237960204   14    2    9    3
 -0.03978172788336458   14    2    9    9
 0.0365975629966604   14    2   10    4
 -0.04438967337451991   14    2   10   10
 0.0365975629966604   14    2   11    5
 -0.0443896733745199   14    2   11   11
 -0.03660438998269937   14    2   12    6
 -0.04373612041370904   14    2   12   12
 -0.03660438998269935   14    2   13    7
 -0.04373612041370892   14    2   13   13
 0.0348289252690613   14    2   14    2
 -0.06068602599761836   14    3    2    1
 -0.009294214077677981   14    3    3    2
 -0.05074960605107092   14    3    6    5
 -0.050749606051071   14    3    7    4
 -0.002451364699328322   14    3    8    1
 -0.05552351379358238   14    3    8    3
 0.001302557792991272   14    3    9    2
 -0.04454106393722999   14    3    9    8
 0.03871967288664128   14    3   10    7
 0.0387196728866412   14    3   11    6
 -0.03782874635836956   14    3   12    5
 0.0446824460440037   14    3   12   11
 -0.03782874635836946   14    3   13    4
 0.04468244604400363   14    3   13   10
 0.03344048844234702   14    3   14    1
 0.04392869793806446   14    3   14    3
 -0.006623608103881336   14    4    4    2
 -0.006526545608377767   14    4    7    1
 -0.003290918084058393   14    4    7    3
 -0.002570658012642354   14    4    8    4
 -0.0003870451127240703   14    4    9    7
 0.01262767962221427   14    4   10    2
 0.005025225176061468   14    4   10    8
 -0.01234585982568748   14    4   13    1
 -0.005711815678850467   14    4   13    3
 -0.001292623051066713   14    4   13    9
 0.01294129228001074   14    4   14    4
 -0.006623608103881336   14    5    5    2
 -0.006526545608377743   14    5    6    1
 -0.003290918084058381   14    5    6    3
 -0.002570658012642354   14    5    8    5
 -0.0003870451127240661   14    5    9    6
 0.01262767962221427   14    5   11    2
 0.005025225176061468   14    5   11    8
 -0.01234585982568749   14    5   12    1
 -0.00571181567885047   14    5   12    3
 -0.001292623051066714   14    5   12    9
 0.01294129228001074   14    5   14    5
 -0.005988199958797373   14    6    5    1
 -0.003498286400739923   14    6    5    3
 -0.006356131021559608   14    6    6    2
 -0.002844343804819042   14    6    8    6
 -4.382271350510274e-05   14    6    9    5
 0.01270664492611725   14    6   11    1
 0.005558676846507596   14    6   11    3
 0.001969113353127991   14    6   11    9
 -0.01296004332369055   14    6   12    2
 -0.00498559089443548   14    6   12    8
 0.01339663034647158   14    6   14    6
 -0.005988199958797444   14    7    4    1
 -0.003498286400739941   14    7    4    3
 -0.006356131021559706   14    7    7    2
 -0.002844343804819068   14    7    8    7
 -4.382271350510732e-05   14    7    9    4