 &FCI NORB=  26,NELEC=10,MS2=0,
  ORBSYM=1,1,1,1,1,1,1,1,1,1,1,1,1,1,1,1,1,1,1,1,1,1,1,1,1,1
  ISYM=1,
 &END
 0.5100309142163745    1    1    1    1
 0.1878313466115855    2    1    2    1
 0.4760612058204148    2    2    1    1
 0.4854713121023151    2    2    2    2
 -0.05324830415231778    3    1    1    1
 0.006272764971180587    3    1    2    2
 0.08236323666180183    3    1    3    1
 0.09608987852436299    3    2    2    1
 0.1012331212119417    3    2    3    2
 0.4814039226481721    3    3    1    1
 0.4726643727683151    3    3    2    2
 -0.01841580048780898    3    3    3    1
 0.4919760103882944    3    3    3    3
 0.07134542350088013    4    1    4    1
 0.05797620263346891    4    2    4    2
 0.001222790225500106    4    3    4    1
 0.01951802460548643    4    3    4    3
 0.4644448136998248    4    4    1    1
 0.4475322147112428    4    4    2    2
 -0.02836994058018313    4    4    3    1
 0.4360924760311697    4    4    3    3
 0.4551779868989049    4    4    4    4
 0.07134542350088013    5    1    5    1
 0.0579762026334689    5    2    5    2
 0.001222790225500106    5    3    5    1
 0.01951802460548643    5    3    5    3
 0.01671728295819668    5    4    5    4
 0.4644448136998248    5    5    1    1
 0.4475322147112428    5    5    2    2
 -0.02836994058018313    5    5    3    1
 0.4360924760311697    5    5    3    3
 0.4217434209825114    5    5    4    4
 0.4551779868989049    5    5    5    5
 0.05707538627732239    6    1    5    2
 0.05688792453907335    6    1    6    1
 0.06980650245746482    6    2    5    1
 0.01172686443669602    6    2    5    3
 0.07433415559494273    6    2    6    2
 0.01804141537446159    6    3    5    2
 0.01466529156422211    6    3    6    1
 0.01967514376750226    6    3    6    3
 0.01582059311424905    6    4    6    4
 0.1808968347931536    6    5    2    1
 0.08791914911564837    6    5    3    2
 0.1970022713836508    6    5    6    5
 0.4640904832475594    6    6    1    1
 0.4590557276954991    6    6    2    2
 -0.01287974476678071    6    6    3    1
 0.4411035121567056    6    6    3    3
 0.4241282540427374    6    6    4    4
 0.4581147310666188    6    6    5    5
 0.4668629727404593    6    6    6    6
 0.05707538627732239    7    1    4    2
 0.05688792453907335    7    1    7    1
 0.06980650245746482    7    2    4    1
 0.01172686443669602    7    2    4    3
 0.07433415559494272    7    2    7    2
 0.01804141537446158    7    3    4    2
 0.0146652915642221    7    3    7    1
 0.01967514376750225    7    3    7    3
 0.1808968347931536    7    4    2    1
 0.08791914911564837    7    4    3    2
 0.1653610851551527    7    4    6    5
 0.1970022713836508    7    4    7    4
 0.01582059311424905    7    5    6    4
 0.01582059311424905    7    5    7    5
 0.01699323851194072    7    6    5    4
 0.01813380852424893    7    6    7    6
 0.4640904832475594    7    7    1    1
 0.459055727695499    7    7    2    2
 -0.01287974476678071    7    7    3    1
 0.4411035121567056    7    7    3    3
 0.4581147310666188    7    7    4    4
 0.4241282540427374    7    7    5    5
 0.4305953556919614    7    7    6    6
 0.4668629727404593    7    7    7    7
 -0.0474904516010879    8    1    2    1
 0.03117130542062631    8    1    3    2
 -0.04899964522164943    8    1    6    5
 -0.04899964522164942    8    1    7    4
 0.07211478762359776    8    1    8    1
 -0.05920037660013112    8    2    1    1
 -0.01094539112180446    8    2    2    2
 0.0680090993639231    8    2    3    1
 -0.01552810867537753    8    2    3    3
 -0.04279560757369965    8    2    4    4
 -0.04279560757369964    8    2    5    5
 -0.0323252130708441    8    2    6    6
 -0.0323252130708441    8    2    7    7
 0.06763546018430588    8    2    8    2
 0.1663745595961351    8    3    2    1
 0.08928612682248782    8    3    3    2
 0.1517011721200349    8    3    6    5
 0.1517011721200348    8    3    7    4
 -0.04176192084470891    8    3    8    1
 0.1706836206198354    8    3    8    3
 -0.01459286245242764    8    4    4    2
 -0.01774853062397036    8    4    7    1
 0.01085047384290943    8    4    7    3
 0.02057721390638747    8    4    8    4
 -0.01459286245242764    8    5    5    2
 -0.01774853062397036    8    5    6    1
 0.01085047384290943    8    5    6    3
 0.02057721390638747    8    5    8    5
 -0.02239816549534956    8    6    5    1
 0.01482111561712224    8    6    5    3
 -0.01468242404540743    8    6    6    2
 0.02212314964353658    8    6    8    6
 -0.02239816549534956    8    7    4    1
 0.01482111561712224    8    7    4    3
 -0.01468242404540743    8    7    7    2
 0.02212314964353658    8    7    8    7
 0.5008119564372483    8    8    1    1
 0.4733605356220114    8    8    2    2
 -0.04643762559667004    8    8    3    1
 0.4915528069700977    8    8    3    3
 0.4491798102921346    8    8    4    4
 0.4491798102921346    8    8    5    5
 0.4515356633174018    8    8    6    6
 0.4515356633174017    8    8    7    7
 -0.04756840688626534    8    8    8    2
 0.5165811582423259    8    8    8    8
 0.02042317352273698    9    1    2    1
 0.0268179971996125    9    1    3    2
 0.01831639511471062    9    1    6    5
 0.01831639511471063    9    1    7    4
 0.01252750534672151    9    1    8    1
 0.01210289517295717    9    1    8    3
 0.01776756601168968    9    1    9    1
 0.04809285825290398    9    2    1    1
 0.06511725732513579    9    2    2    2
 0.02170277782576579    9    2    3    1
 0.05635300248491502    9    2    3    3
 0.04649282903086503    9    2    4    4
 0.04649282903086502    9    2    5    5
 0.05220339121317884    9    2    6    6
 0.05220339121317887    9    2    7    7
 0.0136187924436957    9    2    8    2
 0.04448394152863923    9    2    8    8
 0.03760701277910625    9    2    9    2
 0.07324864974312609    9    3    2    1
 0.03621896088173293    9    3    3    2
 0.06481501915247766    9    3    6    5
 0.06481501915247762    9    3    7    4
 -0.02350174250593641    9    3    8    1
 0.06911805229295651    9    3    8    3
 0.02195067274189904    9    3    9    1
 0.06571361905906754    9    3    9    3
 0.006462358660127398    9    4    4    2
 0.005416404801680067    9    4    7    1
 0.00547521775168411    9    4    7    3
 0.001782656355072271    9    4    8    4
 0.008376056848145307    9    4    9    4
 0.006462358660127397    9    5    5    2
 0.005416404801680065    9    5    6    1
 0.005475217751684109    9    5    6    3
 0.001782656355072271    9    5    8    5
 0.008376056848145304    9    5    9    5
 0.004447894342513117    9    6    5    1
 0.005560977808950262    9    6    5    3
 0.007312870392942009    9    6    6    2
 0.00199224065579441    9    6    8    6
 0.01075815552726116    9    6    9    6
 0.004447894342513116    9    7    4    1
 0.005560977808950261    9    7    4    3
 0.007312870392942007    9    7    7    2
 0.001992240655794409    9    7    8    7
 0.01075815552726117    9    7    9    7
 0.09534167928319842    9    8    1    1
 0.08553156419740826    9    8    2    2
 -0.01777111276114578    9    8    3    1
 0.09139898788154224    9    8    3    3
 0.0767066048414841    9    8    4    4
 0.0767066048414841    9    8    5    5
 0.0775469194083198    9    8    6    6
 0.07754691940831976    9    8    7    7
 -0.02062797111753322    9    8    8    2
 0.09851164254083736    9    8    8    8
 0.0331159054250906    9    8    9    2
 0.05923773642827195    9    8    9    8
 0.3738231279695564    9    9    1    1
 0.3981080520728218    9    9    2    2
 0.02804216447540065    9    9    3    1
 0.400381792784636    9    9    3    3
 0.3552372263480827    9    9    4    4
 0.3552372263480826    9    9    5    5
 0.3680629576836902    9    9    6    6
 0.3680629576836902    9    9    7    7
 0.02197125608800114    9    9    8    2
 0.3940152434006933    9    9    8    8
 0.04399033329068665    9    9    9    2
 0.0489281839445498    9    9    9    8
 0.3822676362014026    9    9    9    9
 -0.01787020405803015   10    1    4    1
 -0.006283897213519513   10    1    4    3
 -0.02248867800149259   10    1    7    2
 0.005850199323815119   10    1    8    7
 -0.008416835154078359   10    1    9    7
 0.02134804169000991   10    1   10    1
 -0.02765035397161721   10    2    4    2
 -0.02719381932558164   10    2    7    1
 -0.00877188672627921   10    2    7    3
 0.007314498652673519   10    2    8    4
 -0.009355700792117881   10    2    9    4
 0.02355121639884498   10    2   10    2
 -0.01200043117588146   10    3    4    1
 -0.005232969525141903   10    3    4    3
 -0.01344270805315473   10    3    7    2
 -0.002405483336954705   10    3    8    7
 -0.008259833351737907   10    3    9    7
 0.003108341618674452   10    3   10    1
 0.01050929879024917   10    3   10    3
 -0.09005795958098325   10    4    1    1
 -0.0981800575567456   10    4    2    2
 -0.006152226571933291   10    4    3    1
 -0.0859397449932852   10    4    3    3
 -0.0826608541486674   10    4    4    4
 -0.07608084284931679   10    4    5    5
 -0.08400934535503408   10    4    6    6
 -0.09383111776013099   10    4    7    7
 0.00820406897401459   10    4    8    2
 -0.09397187391932973   10    4    8    8
 -0.03236598466785327   10    4    9    2
 -0.04172118679403583   10    4    9    8
 -0.06835767245652606   10    4    9    9
 0.07127346458190506   10    4   10    4
 -0.003290005649675302   10    5    5    4
 -0.004910886202548459   10    5    7    6
 0.008387487674803053   10    5   10    5
 -0.006040038714101771   10    6    6    4
 -0.00604003871410177   10    6    7    5
 0.007945237440485036   10    6   10    6
 -0.09339431263708052   10    7    2    1
 -0.04185625448872749   10    7    3    2
 -0.08327479092657293   10    7    6    5
 -0.09535486835477645   10    7    7    4
 0.03115653704375192   10    7    8    1
 -0.07888275655290422   10    7    8    3
 -0.01800376168474514   10    7    9    1
 -0.05484797465328367   10    7    9    3
 0.07932169398225936   10    7   10    7
 0.007831649761202921   10    8    4    2
 0.009454630066426325   10    8    7    1
 -0.004553176376430332   10    8    7    3
 -0.009676398618581874   10    8    8    4
 -0.004094351453598452   10    8    9    4
 -0.00458802523259399   10    8   10    2
 0.009730880035542287   10    8   10    8
 -0.02092973627490266   10    9    4    2
 -0.01867313537231982   10    9    7    1
 -0.0149879077116331   10    9    7    3
 -0.0042049673349031   10    9    8    4
 -0.004120569501544327   10    9    9    4
 0.009758465433849844   10    9   10    2
 0.001524879934118213   10    9   10    8
 0.0159297076030866   10    9   10    9
 0.4312184103334212   10   10    1    1
 0.4200091904058617   10   10    2    2
 -0.02056242131593395   10   10    3    1
 0.40993551949253   10   10    3    3
 0.4247949067487186   10   10    4    4
 0.3973872918111306   10   10    5    5
 0.4005340622057277   10   10    6    6
 0.4279461437034404   10   10    7    7
 -0.03433427931971582   10   10    8    2
 0.4209598865035267   10   10    8    8
 0.04723617085048794   10   10    9    2
 0.07414892233832313   10   10    9    8
 0.3452342934649923   10   10    9    9
 -0.07850204750581766   10   10   10    4
 0.4140451979820339   10   10   10   10
 -0.01787020405803015   11    1    5    1
 -0.006283897213519511   11    1    5    3
 -0.02248867800149259   11    1    6    2
 0.005850199323815118   11    1    8    6
 -0.008416835154078357   11    1    9    6
 0.02134804169000991   11    1   11    1
 -0.02765035397161721   11    2    5    2
 -0.02719381932558163   11    2    6    1
 -0.008771886726279208   11    2    6    3
 0.007314498652673516   11    2    8    5
 -0.009355700792117876   11    2    9    5
 0.02355121639884497   11    2   11    2
 -0.01200043117588145   11    3    5    1
 -0.005232969525141903   11    3    5    3
 -0.01344270805315473   11    3    6    2
 -0.002405483336954706   11    3    8    6
 -0.008259833351737909   11    3    9    6
 0.003108341618674449   11    3   11    1
 0.01050929879024917   11    3   11    3
 -0.003290005649675302   11    4    5    4
 -0.004910886202548459   11    4    7    6
 0.008387487674803053   11    4   10    5
 0.008387487674803053   11    4   11    4
 -0.09005795958098325   11    5    1    1
 -0.09818005755674558   11    5    2    2
 -0.006152226571933291   11    5    3    1
 -0.0859397449932852   11    5    3    3
 -0.07608084284931675   11    5    4    4
 -0.08266085414866739   11    5    5    5
 -0.09383111776013101   11    5    6    6
 -0.08400934535503404   11    5    7    7
 0.008204068974014593   11    5    8    2
 -0.09397187391932973   11    5    8    8
 -0.03236598466785327   11    5    9    2
 -0.04172118679403581   11    5    9    8
 -0.06835767245652606   11    5    9    9
 0.05449848923229892   11    5   10    4
 -0.07378931871657961   11    5   10   10
 0.07127346458190509   11    5   11    5
 -0.09339431263708052   11    6    2    1
 -0.04185625448872751   11    6    3    2
 -0.09535486835477648   11    6    6    5
 -0.0832747909265729   11    6    7    4
 0.03115653704375192   11    6    8    1
 -0.07888275655290418   11    6    8    3
 -0.01800376168474516   11    6    9    1
 -0.05484797465328368   11    6    9    3
 0.06343121910128928   11    6   10    7
 0.0793216939822594   11    6   11    6
 -0.00604003871410177   11    7    6    4
 -0.006040038714101769   11    7    7    5
 0.007945237440485036   11    7   10    6
 0.007945237440485036   11    7   11    7
 0.007831649761202921   11    8    5    2
 0.009454630066426327   11    8    6    1
 -0.004553176376430334   11    8    6    3
 -0.009676398618581874   11    8    8    5
 -0.004094351453598456   11    8    9    5
 -0.004588025232593988   11    8   11    2
 0.009730880035542287   11    8   11    8
 -0.02092973627490266   11    9    5    2
 -0.01867313537231982   11    9    6    1
 -0.0149879077116331   11    9    6    3
 -0.004204967334903103   11    9    8    5
 -0.004120569501544323   11    9    9    5
 0.009758465433849844   11    9   11    2
 0.001524879934118211   11    9   11    8
 0.0159297076030866   11    9   11    9
 0.01370380746879393   11   10    5    4
 0.01370604074885629   11   10    7    6
 -0.002356364394619011   11   10   10    5
 -0.002356364394619011   11   10   11    4
 0.01474306906753959   11   10   11   10
 0.4312184103334212   11   11    1    1
 0.4200091904058618   11   11    2    2
 -0.02056242131593396   11   11    3    1
 0.40993551949253   11   11    3    3
 0.3973872918111306   11   11    4    4
 0.4247949067487186   11   11    5    5
 0.4279461437034404   11   11    6    6
 0.4005340622057278   11   11    7    7
 -0.0343342793197158   11   11    8    2
 0.4209598865035268   11   11    8    8
 0.04723617085048791   11   11    9    2
 0.07414892233832311   11   11    9    8
 0.3452342934649924   11   11    9    9
 -0.07378931871657962   11   11   10    4
 0.3845590598469548   11   11   10   10
 -0.0785020475058176   11   11   11    5
 0.4140451979820338   11   11   11   11
 -0.05558182120479715   12    1    1    1
 -0.06465381127387941   12    1    2    2
 -0.009692912706944105   12    1    3    1
 -0.05603626418136808   12    1    3    3
 -0.04972942228274208   12    1    4    4
 -0.04972942228274208   12    1    5    5
 -0.05530185462496509   12    1    6    6
 -0.05530185462496508   12    1    7    7
 -0.0004057152852188123   12    1    8    2
 -0.05546091075526195   12    1    8    8
 -0.0291317043499613   12    1    9    2
 -0.03180364787869463   12    1    9    8
 -0.04300964137938251   12    1    9    9
 0.03813644755015093   12    1   10    4
 -0.04928674198487906   12    1   10   10
 0.03813644755015093   12    1   11    5
 -0.04928674198487908   12    1   11   11
 0.02815070714694207   12    1   12    1
 -0.06541707463504877   12    2    2    1
 -0.03803523528377822   12    2    3    2
 -0.05914219485019986   12    2    6    5
 -0.05914219485019984   12    2    7    4
 0.01328145724632163   12    2    8    1
 -0.05477821240316921   12    2    8    3
 -0.02340393664750438   12    2    9    1
 -0.05352647876424539   12    2    9    3
 0.05255663387117562   12    2   10    7
 0.05255663387117562   12    2   11    6
 0.04972646587306893   12    2   12    2
 -0.06725016490468833   12    3    1    1
 -0.0722026217537441   12    3    2    2
 -0.004515495227490994   12    3    3    1
 -0.07122610887540085   12    3    3    3
 -0.05849430316184807   12    3    4    4
 -0.05849430316184807   12    3    5    5
 -0.06110811217905989   12    3    6    6
 -0.06110811217905988   12    3    7    7
 -0.0002623392108627734   12    3    8    2
 -0.06436424405650129   12    3    8    8
 -0.03773763773529038   12    3    9    2
 -0.04452038353589768   12    3    9    8
 -0.04502292559997685   12    3    9    9
 0.034376293270112   12    3   10    4
 -0.05844600953799618   12    3   10   10
 0.03437629327011202   12    3   11    5
 -0.05844600953799618   12    3   11   11
 0.03041592023124449   12    3   12    1
 0.0429906474495554   12    3   12    3
 -0.004676735840510233   12    4    4    1
 -0.004096869096146204   12    4    4    3
 -0.007687204815769922   12    4    7    2
 0.001468016141665036   12    4    8    7
 -0.01083059384647928   12    4    9    7
 0.01489969645625281   12    4   10    1
 0.005442378580077446   12    4   10    3
 0.01493269084396466   12    4   12    4
 -0.004676735840510232   12    5    5    1
 -0.004096869096146202   12    5    5    3
 -0.007687204815769923   12    5    6    2
 0.001468016141665035   12    5    8    6
 -0.01083059384647928   12    5    9    6
 0.01489969645625281   12    5   11    1
 0.005442378580077445   12    5   11    3
 0.01493269084396466   12    5   12    5
 -0.01112648824607711   12    6    5    2
 -0.01082325720795644   12    6    6    1
 -0.003579640259808357   12    6    6    3
 0.00331049241468006   12    6    8    5
 -0.01028312118326234   12    6    9    5
 0.01700474132121882   12    6   11    2
 2.580600983304172e-05   12    6   11    8
 0.003581325345876203   12    6   11    9
 0.01667226438270442   12    6   12    6
 -0.0111264882460771   12    7    4    2
 -0.01082325720795644   12    7    7    1
 -0.003579640259808357   12    7    7    3
 0.00331049241468006   12    7    8    4
 -0.01028312118326235   12    7    9    4
 0.01700474132121882   12    7   10    2
 2.580600983303849e-05   12    7   10    8
 0.003581325345876211   12    7   10    9
 0.01667226438270442   12    7   12    7
 -0.002609000873515722   12    8    2    1
 -0.005061178496486987   12    8    3    2
 0.0005687713749244591   12    8    6    5
 0.0005687713749244566   12    8    7    4
 -0.001520530462147023   12    8    8    1
 -0.001583263236165501   12    8    8    3
 -0.01413929348694259   12    8    9    1
 -0.02838401294254965   12    8    9    3
 0.0115627373368298   12    8   10    7
 0.01156273733682981   12    8   11    6
 0.02199727388251897   12    8   12    2
 0.02305285199722024   12    8   12    8
 -0.1476309279078488   12    9    2    1
 -0.115496890220124   12    9    3    2
 -0.1394026290569145   12    9    6    5
 -0.1394026290569145   12    9    7    4
 -0.004025554044069805   12    9    8    1
 -0.145110071022325   12    9    8    3
 -0.01917905556737066   12    9    9    1
 -0.04429083118944174   12    9    9    3
 0.06212758314483358   12    9   10    7
 0.06212758314483363   12    9   11    6
 0.04323146633747856   12    9   12    2
 -0.008426445874037236   12    9   12    8
 0.173788527216907   12    9   12    9
 0.04163241496971085   12   10    4    1
 0.009743407804538444   12   10    4    3
 0.04513718006727926   12   10    7    2
 -0.004790077831577496   12   10    8    7
 0.003602160448021935   12   10    9    7
 -0.01038670611507327   12   10   10    1
 -0.009755765017088419   12   10   10    3
 -0.001934489459545676   12   10   12    4
 0.03380345619307614   12   10   12   10
 0.04163241496971085   12   11    5    1
 0.009743407804538444   12   11    5    3
 0.04513718006727926   12   11    6    2
 -0.004790077831577495   12   11    8    6
 0.003602160448021934   12   11    9    6
 -0.01038670611507327   12   11   11    1
 -0.009755765017088419   12   11   11    3
 -0.001934489459545681   12   11   12    5
 0.03380345619307615   12   11   12   11
 0.3726115298022758   12   12    1    1
 0.3957993792416849   12   12    2    2
 0.02772911987961351   12   12    3    1
 0.3900065824789697   12   12    3    3
 0.3593109560261658   12   12    4    4
 0.3593109560261658   12   12    5    5
 0.3711386707988395   12   12    6    6
 0.3711386707988394   12   12    7    7
 0.0184045254426032   12   12    8    2
 0.3811903779640676   12   12    8    8
 0.04339658010779159   12   12    9    2
 0.04463285661543147   12   12    9    8
 0.3673572396279688   12   12    9    9
 -0.06245782893803031   12   12   10    4
 0.3475678353810149   12   12   10   10
 -0.06245782893803034   12   12   11    5
 0.3475678353810149   12   12   11   11
 -0.04048156231903394   12   12   12    1
 -0.04316878247832631   12   12   12    3
 0.3605385509515824   12   12   12   12
 0.01974995842204004   13    1    5    2
 0.02061664660800728   13    1    6    1
 0.00105278724795792   13    1    6    3
 -0.0110197542807611   13    1    8    5
 0.006230268961530507   13    1    9    5
 -0.01917302734244083   13    1   11    2
 0.006740411128063378   13    1   11    8
 -0.003953353081514276   13    1   11    9
 -0.01445661493635983   13    1   12    6
 0.01805365339949156   13    1   13    1
 0.01904598624974998   13    2    5    1
 0.001120437133908787   13    2    5    3
 0.02025130333361229   13    2    6    2
 -0.008985300438534075   13    2    8    6
 0.009977096723327274   13    2    9    6
 -0.01885023707438258   13    2   11    1
 -0.00576606670525104   13    2   11    3
 -0.01541448813823229   13    2   12    5
 0.009339449815144285   13    2   12   11
 0.01983943464736392   13    2   13    2
 -0.001540817958130051   13    3    5    2
 -0.002761957399379768   13    3    6    1
 0.004124207646324663   13    3    6    3
 0.005122146062242398   13    3    8    5
 0.007404233652810732   13    3    9    5
 -0.004113300544872247   13    3   11    2
 -0.006445346336858466   13    3   11    8
 -0.002291675024105199   13    3   11    9
 -0.007424444387903161   13    3   12    6
 0.001603862997937658   13    3   13    1
 0.007999413488736238   13    3   13    3
 0.003869177313851585   13    4    6    4
 0.003869177313851584   13    4    7    5
 -0.00713761399327764   13    4   10    6
 -0.00713761399327764   13    4   11    7
 0.006911474531464025   13    4   13    4
 0.0662071821560352   13    5    2    1
 0.02092415792749825   13    5    3    2
 0.06618530198714409   13    5    6    5
 0.05844694735944086   13    5    7    4
 -0.03210149942145542   13    5    8    1
 0.05624644645174806   13    5    8    3
 0.01320664621271457   13    5    9    1
 0.04587932515231755   13    5    9    3
 -0.0516739172086628   13    5   10    7
 -0.06594914519521812   13    5   11    6
 -0.04348152189150067   13    5   12    2
 -0.01167913717059186   13    5   12    8
 -0.03535617174548027   13    5   12    9
 0.05858944534360701   13    5   13    5
 0.1029430262984739   13    6    1    1
 0.09859095181282594   13    6    2    2
 -0.01065764931799849   13    6    3    1
 0.09179289570403215   13    6    3    3
 0.08442111937537387   13    6    4    4
 0.09140888574296134   13    6    5    5
 0.09690215896774486   13    6    6    6
 0.08850050185614852   13    6    7    7
 -0.02141716876594207   13    6    8    2
 0.1036222979410182   13    6    8    8
 0.03162576456482284   13    6    9    2
 0.0475968001448759   13    6    9    8
 0.06244831467347842   13    6    9    9
 -0.0530503956410791   13    6   10    4
 0.08180068095024465   13    6   10   10
 -0.06817562084842094   13    6   11    5
 0.08801556662837262   13    6   11   11
 -0.03776511576116545   13    6   12    1
 -0.03766844375483924   13    6   12    3
 0.05710073477217267   13    6   12   12
 0.07226738903478483   13    6   13    6
 0.003493883183793713   13    7    5    4
 0.004200828555798122   13    7    7    6
 -0.00756261260367089   13    7   10    5
 -0.00756261260367089   13    7   11    4
 0.003107442839063987   13    7   11   10
 0.007935920728153044   13    7   13    7
 -0.018679222539963   13    8    5    1
 0.004166168409773966   13    8    5    3
 -0.01688435771407659   13    8    6    2
 0.01122387733997474   13    8    8    6
 0.004854397503839122   13    8    9    6
 0.007569632005347083   13    8   11    1
 -0.004272146794898785   13    8   11    3
 -0.0004296394118625146   13    8   12    5
 -0.008718895194560553   13    8   12   11
 -0.00578485941108812   13    8   13    2
 0.01322484978030085   13    8   13    8
 0.02070787289299364   13    9    5    1
 0.01293007798929363   13    9    5    3
 0.02634820360211395   13    9    6    2
 0.005498749180186481   13    9    8    6
 0.001403620764959953   13    9    9    6
 -0.004459544718232477   13    9   11    1
 -0.006312041435655953   13    9   11    3
 0.000798526636761157   13    9   12    5
 0.02284441197514232   13    9   12   11
 0.001708962489413992   13    9   13    2
 -0.003075810967349637   13    9   13    8
 0.02064434326306047   13    9   13    9
 -0.0113143088939222   13   10    6    4
 -0.0113143088939222   13   10    7    5
 0.004424317869275518   13   10   10    6
 0.004424317869275517   13   10   11    7
 -0.002728257029349747   13   10   13    4
 0.01106853195167062   13   10   13   10
 -0.149567423489276   13   11    2    1
 -0.07438307336492953   13   11    3    2
 -0.1623316341038983   13   11    6    5
 -0.1397030163160539   13   11    7    4
 0.039720511247544   13   11    8    1
 -0.12898739268721   13   11    8    3
 -0.01514091555250185   13   11    9    1
 -0.0567606983627708   13   11    9    3
 0.07345586394303956   13   11   10    7
 0.08230449968159059   13   11   11    6
 0.05137462693482901   13   11   12    2
 -0.0003875633624277192   13   11   12    8
 0.1250695508073277   13   11   12    9
 -0.05753826682307799   13   11   13    5
 0.1481252786693499   13   11   13   11
 -0.03686456113283534   13   12    5    2
 -0.03507507479002882   13   12    6    1
 -0.01703257106039133   13   12    6    3
 0.002787455978487239   13   12    8    5
 -0.00159219998579329   13   12    9    5
 0.01398259812522062   13   12   11    2
 -0.003979475860680899   13   12   11    8
 0.02059088457426899   13   12   11    9
 0.001611035679572434   13   12   12    6
 -0.00742394233090556   13   12   13    1
 0.002265275325620196   13   12   13    3
 0.03343527791760605   13   12   13   12
 0.4065184252043501   13   13    1    1
 0.4014793423188079   13   13    2    2
 -0.01218113427048608   13   13    3    1
 0.3899173230562573   13   13    3    3
 0.3772095128449952   13   13    4    4
 0.402217998536598   13   13    5    5
 0.409017287291891   13   13    6    6
 0.3825709190287461   13   13    7    7
 -0.02675115253243249   13   13    8    2
 0.4013004905880595   13   13    8    8
 0.03910503852414693   13   13    9    2
 0.06265997568180691   13   13    9    8
 0.3394020492112775   13   13    9    9
 -0.06843222604654434   13   13   10    4
 0.3649903590965252   13   13   10   10
 -0.07284225240283096   13   13   11    5
 0.3912648468660336   13   13   11   11
 -0.04292045260948884   13   13   12    1
 -0.04722980217880025   13   13   12    3
 0.3409769568181557   13   13   12   12
 0.07559422672320822   13   13   13    6
 0.3788561232152575   13   13   13   13
 0.01974995842204004   14    1    4    2
 0.02061664660800728   14    1    7    1
 0.001052787247957917   14    1    7    3
 -0.01101975428076111   14    1    8    4
 0.006230268961530507   14    1    9    4
 -0.01917302734244082   14    1   10    2
 0.006740411128063378   14    1   10    8
 -0.003953353081514271   14    1   10    9
 -0.01445661493635982   14    1   12    7
 0.01805365339949157   14    1   14    1
 0.01904598624974998   14    2    4    1
 0.001120437133908784   14    2    4    3
 0.02025130333361228   14    2    7    2
 -0.00898530043853408   14    2    8    7
 0.009977096723327276   14    2    9    7
 -0.01885023707438258   14    2   10    1
 -0.005766066705251038   14    2   10    3
 -0.01541448813823229   14    2   12    4
 0.009339449815144282   14    2   12   10
 0.01983943464736392   14    2   14    2
 -0.001540817958130057   14    3    4    2
 -0.002761957399379773   14    3    7    1
 0.004124207646324659   14    3    7    3
 0.005122146062242399   14    3    8    4
 0.007404233652810735   14    3    9    4
 -0.004113300544872247   14    3   10    2
 -0.006445346336858467   14    3   10    8
 -0.0022916750241052   14    3   10    9
 -0.007424444387903163   14    3   12    7
 0.001603862997937657   14    3   14    1
 0.007999413488736243   14    3   14    3
 0.0662071821560352   14    4    2    1
 0.02092415792749826   14    4    3    2
 0.05844694735944088   14    4    6    5
 0.06618530198714406   14    4    7    4
 -0.03210149942145542   14    4    8    1
 0.05624644645174808   14    4    8    3
 0.01320664621271456   14    4    9    1
 0.04587932515231757   14    4    9    3
 -0.06594914519521808   14    4   10    7
 -0.05167391720866282   14    4   11    6
 -0.04348152189150071   14    4   12    2
 -0.01167913717059185   14    4   12    8
 -0.03535617174548034   14    4   12    9
 0.04476649628067897   14    4   13    5
 -0.05208175276437853   14    4   13   11
 0.05858944534360701   14    4   14    4
 0.003869177313851585   14    5    6    4
 0.003869177313851585   14    5    7    5
 -0.007137613993277644   14    5   10    6
 -0.007137613993277644   14    5   11    7
 0.006911474531464029   14    5   13    4
 -0.002728257029349746   14    5   13   10
 0.006911474531464032   14    5   14    5
 0.003493883183793714   14    6    5    4
 0.004200828555798124   14    6    7    6
 -0.007562612603670894   14    6   10    5
 -0.007562612603670894   14    6   11    4
 0.003107442839063989   14    6   11   10
 0.007935920728153049   14    6   13    7