 &FCI NORB=  26,NELEC=10,MS2=0,
  ORBSYM=1,1,1,1,1,1,1,1,1,1,1,1,1,1,1,1,1,1,1,1,1,1,1,1,1,1
  ISYM=1,
 &END
 0.4388810352181651    1    1    1    1
 0.2549240896162843    2    1    2    1
 0.4396436676680231    2    2    1    1
 0.4422817864033727    2    2    2    2
 -0.01085874681976199    3    1    1    1
 0.0002157016734936242    3    1    2    2
 0.06921806979304392    3    1    3    1
 0.03957532306565478    3    2    2    1
 0.06385039855153975    3    2    3    2
 0.4147549602666696    3    3    1    1
 0.4141696254263402    3    3    2    2
 -0.01214541451859479    3    3    3    1
 0.4187881590937183    3    3    3    3
 0.06728882699144682    4    1    4    1
 0.06435815764904608    4    2    4    2
 0.00102805914486513    4    3    4    1
 0.01646450265439148    4    3    4    3
 0.4137391139628807    4    4    1    1
 0.4146816871540543    4    4    2    2
 -0.00874859996479131    4    4    3    1
 0.3830379043782131    4    4    3    3
 0.4146599366393878    4    4    4    4
 0.06728882699144682    5    1    5    1
 0.06435815764904607    5    2    5    2
 0.001028059144865131    5    3    5    1
 0.01646450265439147    5    3    5    3
 0.01627833216035411    5    4    5    4
 0.4137391139628807    5    5    1    1
 0.4146816871540543    5    5    2    2
 -0.008748599964791309    5    5    3    1
 0.383037904378213    5    5    3    3
 0.3821032723186796    5    5    4    4
 0.4146599366393878    5    5    5    5
 0.06439993656175844    6    1    5    2
 0.06447713817604557    6    1    6    1
 0.06830095644730234    6    2    5    1
 0.002890367800856967    6    2    5    3
 0.06957290934669262    6    2    6    2
 0.005104486761669778    6    3    5    2
 0.004378841455695821    6    3    6    1
 0.01557662827936908    6    3    6    3
 0.01639357883939306    6    4    6    4
 0.2342955016622942    6    5    2    1
 0.03416607395694522    6    5    3    2
 0.2392513935364638    6    5    6    5
 0.4171639046854436    6    6    1    1
 0.4186695908404127    6    6    2    2
 -0.005942184150819163    6    6    3    1
 0.3851404147026041    6    6    3    3
 0.3850113208670444    6    6    4    4
 0.4182102050007456    6    6    5    5
 0.4220721265021293    6    6    6    6
 0.06439993656175846    7    1    4    2
 0.06447713817604561    7    1    7    1
 0.06830095644730237    7    2    4    1
 0.002890367800856969    7    2    4    3
 0.06957290934669268    7    2    7    2
 0.005104486761669781    7    3    4    2
 0.004378841455695824    7    3    7    1
 0.01557662827936909    7    3    7    3
 0.2342955016622943    7    4    2    1
 0.03416607395694524    7    4    3    2
 0.2064642358576777    7    4    6    5
 0.2392513935364639    7    4    7    4
 0.01639357883939306    7    5    6    4
 0.01639357883939307    7    5    7    5
 0.01659944206685058    7    6    5    4
 0.01695747486111118    7    6    7    6
 0.4171639046854438    7    7    1    1
 0.4186695908404131    7    7    2    2
 -0.005942184150819162    7    7    3    1
 0.3851404147026041    7    7    3    3
 0.4182102050007458    7    7    4    4
 0.3850113208670446    7    7    5    5
 0.3881571767799072    7    7    6    6
 0.4220721265021298    7    7    7    7
 -0.007747300215447141    8    1    2    1
 0.06017606995084031    8    1    3    2
 -0.0091087176950544    8    1    6    5
 -0.009108717695054407    8    1    7    4
 0.06559337279019441    8    1    8    1
 -0.02100881857841246    8    2    1    1
 -0.01035783501587737    8    2    2    2
 0.06934573429596252    8    2    3    1
 -0.01597170859001048    8    2    3    3
 -0.01903235409303364    8    2    4    4
 -0.01903235409303363    8    2    5    5
 -0.01670976178220699    8    2    6    6
 -0.01670976178220701    8    2    7    7
 0.07150917827593076    8    2    8    2
 0.2262600738168347    8    3    2    1
 0.03452078493826147    8    3    3    2
 0.1991897071258403    8    3    6    5
 0.1991897071258404    8    3    7    4
 -0.008015447706805411    8    3    8    1
 0.2232385346136319    8    3    8    3
 -0.004373233818642708    8    4    4    2
 -0.005146119159938401    8    4    7    1
 0.01567984608090639    8    4    7    3
 0.01727437889288994    8    4    8    4
 -0.004373233818642707    8    5    5    2
 -0.005146119159938398    8    5    6    1
 0.01567984608090638    8    5    6    3
 0.01727437889288994    8    5    8    5
 -0.006110513999431566    8    6    5    1
 0.01657319242661483    8    6    5    3
 -0.004463548960791047    8    6    6    2
 0.0179250715713219    8    6    8    6
 -0.006110513999431568    8    7    4    1
 0.01657319242661484    8    7    4    3
 -0.004463548960791052    8    7    7    2
 0.01792507157132191    8    7    8    7
 0.4297281221279115    8    8    1    1
 0.4292714868870264    8    8    2    2
 -0.01598191326821229    8    8    3    1
 0.4287452343781755    8    8    3    3
 0.3957348712271938    8    8    4    4
 0.3957348712271938    8    8    5    5
 0.398445229997527    8    8    6    6
 0.3984452299975272    8    8    7    7
 -0.0227263235142479    8    8    8    2
 0.4451923582186288    8    8    8    8
 -0.03836293137401825    9    1    1    1
 -0.03683116902330832    9    1    2    2
 0.01914130759552894    9    1    3    1
 -0.0251146982532228    9    1    3    3
 -0.03360297576119275    9    1    4    4
 -0.03360297576119275    9    1    5    5
 -0.03462615097575199    9    1    6    6
 -0.03462615097575204    9    1    7    7
 0.02548921248110331    9    1    8    2
 -0.03782298413114459    9    1    8    8
 0.03201756576589041    9    1    9    1
 -0.04110146357278555    9    2    2    1
 0.02047836867280109    9    2    3    2
 -0.03798317055979405    9    2    6    5
 -0.03798317055979408    9    2    7    4
 0.03041700935901627    9    2    8    1
 -0.03534151868449428    9    2    8    3
 0.02848217886801747    9    2    9    2
 0.06788441052825663    9    3    1    1
 0.0718105990528155    9    3    2    2
 0.01079257543413168    9    3    3    1
 0.05579797109473156    9    3    3    3
 0.05661191146474989    9    3    4    4
 0.05661191146474989    9    3    5    5
 0.05958723673546343    9    3    6    6
 0.05958723673546353    9    3    7    7
 0.002561071530930143    9    3    8    2
 0.07272827647785694    9    3    8    8
 -0.03177912976822833    9    3    9    1
 0.06208434717163117    9    3    9    3
 -0.005948860956957247    9    4    4    1
 0.003212652010344593    9    4    4    3
 -0.006232308135057951    9    4    7    2
 0.005891265611364157    9    4    8    7
 0.01233706497397234    9    4    9    4
 -0.005948860956957245    9    5    5    1
 0.003212652010344593    9    5    5    3
 -0.006232308135057941    9    5    6    2
 0.00589126561136415    9    5    8    6
 0.01233706497397234    9    5    9    5
 -0.008920780362283044    9    6    5    2
 -0.009207471053873552    9    6    6    1
 0.005009658891701446    9    6    6    3
 0.007139946680872889    9    6    8    5
 0.01040634419148274    9    6    9    6
 -0.008920780362283066    9    7    4    2
 -0.009207471053873584    9    7    7    1
 0.005009658891701458    9    7    7    3
 0.0071399466808729    9    7    8    4
 0.01040634419148275    9    7    9    7
 0.1145831011975826    9    8    2    1
 0.005498277704290637    9    8    3    2
 0.09942132138608731    9    8    6    5
 0.09942132138608735    9    8    7    4
 -0.01786545333503851    9    8    8    1
 0.1097231333848903    9    8    8    3
 -0.03417889511429063    9    8    9    2
 0.08018957551933978    9    8    9    8
 0.4102526172661597    9    9    1    1
 0.4016311738649969    9    9    2    2
 -0.06107885526055908    9    9    3    1
 0.4109038092149684    9    9    3    3
 0.3834896684159827    9    9    4    4
 0.3834896684159826    9    9    5    5
 0.383257016661285    9    9    6    6
 0.3832570166612851    9    9    7    7
 -0.06477224794024079    9    9    8    2
 0.4200756135585699    9    9    8    8
 -0.03659573975521706    9    9    9    1
 0.04179435921708438    9    9    9    3
 0.4588842312444779    9    9    9    9
 -0.02227421009932979   10    1    4    1
 -0.002437251959291665   10    1    4    3
 -0.0233371052950705   10    1    7    2
 0.001548239007551713   10    1    8    7
 0.01051793340720809   10    1    9    4
 0.0210225482107951   10    1   10    1
 -0.02500092578330654   10    2    4    2
 -0.02501506457078213   10    2    7    1
 -0.00223088788803113   10    2    7    3
 0.002057075011894774   10    2    8    4
 0.009241452473419395   10    2    9    7
 0.02126126141316106   10    2   10    2
 -0.005008852467560761   10    3    4    1
 -0.003100473014527573   10    3    4    3
 -0.005102172787389113   10    3    7    2
 -0.003808299732890096   10    3    8    7
 -0.007162035425111478   10    3    9    4
 0.0008171502749954977   10    3   10    1
 0.008508313985331532   10    3   10    3
 -0.09181598486590646   10    4    1    1
 -0.0943743150349638   10    4    2    2
 -0.004715671271449283   10    4    3    1
 -0.07395496837503131   10    4    3    3
 -0.08659841824621958   10    4    4    4
 -0.07772761965083048   10    4    5    5
 -0.08014177004838627   10    4    6    6
 -0.08966022996370371   10    4    7    7
 0.002694162598585164   10    4    8    2
 -0.08427691712028076   10    4    8    8
 0.02722110982999678   10    4    9    1
 -0.04614149822470478   10    4    9    3
 -0.07159577874246174   10    4    9    9
 0.06922689818746874   10    4   10    4
 -0.00443539929769454   10    5    5    4
 -0.004759229957658655   10    5    7    6
 0.007641285682266951   10    5   10    5
 -0.005022269563913354   10    6    6    4
 -0.005022269563913362   10    6    7    5
 0.007578224778370426   10    6   10    6
 -0.09489731995912679   10    7    2    1
 -0.01135253344433775   10    7    3    2
 -0.08055794322502212   10    7    6    5
 -0.09060248235284896   10    7    7    4
 0.007370140625687005   10    7    8    1
 -0.07879204814281633   10    7    8    3
 0.02542029318139454   10    7    9    2
 -0.05864609522426698   10    7    9    8
 0.07175048191703601   10    7   10    7
 0.002599305625037286   10    8    4    2
 0.002855168430121517   10    8    7    1
 -0.005008911257970971   10    8    7    3
 -0.005892755204568006   10    8    8    4
 -0.007292290470455681   10    8    9    7
 -0.001116032239903392   10    8   10    2
 0.007867796781062411   10    8   10    8
 0.02722220572862433   10    9    4    1
 -0.0113910661317802   10    9    4    3
 0.02610632230888574   10    9    7    2
 -0.01368590329620809   10    9    8    7
 -0.002623115578140536   10    9    9    4
 -0.005463315495636029   10    9   10    1
 -0.0009129375937332643   10    9   10    3
 0.02432366777937687   10    9   10    9
 0.3775349237155417   10   10    1    1
 0.377990092967239   10   10    2    2
 -0.009018315922451902   10   10    3    1
 0.3550639863952204   10   10    3    3
 0.3779254740219355   10   10    4    4
 0.3532924907315664   10   10    5    5
 0.3556589290825903   10   10    6    6
 0.3806281092914277   10   10    7    7
 -0.01712174720334095   10   10    8    2
 0.3652636889095101   10   10    8    8
 -0.02866277870460208   10   10    9    1
 0.04914454307450323   10   10    9    3
 0.364368778412577   10   10    9    9
 -0.07600898099467603   10   10   10    4
 0.3611840642369922   10   10   10   10
 -0.02227421009932979   11    1    5    1
 -0.002437251959291664   11    1    5    3
 -0.02333710529507049   11    1    6    2
 0.001548239007551714   11    1    8    6
 0.01051793340720809   11    1    9    5
 0.0210225482107951   11    1   11    1
 -0.02500092578330654   11    2    5    2
 -0.0250150645707821   11    2    6    1
 -0.002230887888031125   11    2    6    3
 0.002057075011894777   11    2    8    5
 0.009241452473419391   11    2    9    6
 0.02126126141316106   11    2   11    2
 -0.005008852467560754   11    3    5    1
 -0.003100473014527574   11    3    5    3
 -0.005102172787389106   11    3    6    2
 -0.00380829973289009   11    3    8    6
 -0.007162035425111479   11    3    9    5
 0.0008171502749954949   11    3   11    1
 0.00850831398533153   11    3   11    3
 -0.00443539929769454   11    4    5    4
 -0.004759229957658655   11    4    7    6
 0.007641285682266951   11    4   10    5
 0.007641285682266951   11    4   11    4
 -0.09181598486590647   11    5    1    1
 -0.0943743150349638   11    5    2    2
 -0.004715671271449277   11    5    3    1
 -0.07395496837503129   11    5    3    3
 -0.07772761965083048   11    5    4    4
 -0.0865984182462196   11    5    5    5
 -0.08966022996370356   11    5    6    6
 -0.08014177004838637   11    5    7    7
 0.002694162598585167   11    5    8    2
 -0.08427691712028076   11    5    8    8
 0.02722110982999679   11    5    9    1
 -0.04614149822470477   11    5    9    3
 -0.07159577874246172   11    5    9    9
 0.05394432682293483   11    5   10    4
 -0.07004709297786928   11    5   10   10
 0.06922689818746879   11    5   11    5
 -0.09489731995912658   11    6    2    1
 -0.01135253344433772   11    6    3    2
 -0.09060248235284867   11    6    6    5
 -0.08055794322502197   11    6    7    4
 0.007370140625687006   11    6    8    1
 -0.07879204814281615   11    6    8    3
 0.02542029318139451   11    6    9    2
 -0.05864609522426689   11    6    9    8
 0.05659403236029502   11    6   10    7
 0.07175048191703587   11    6   11    6
 -0.005022269563913366   11    7    6    4
 -0.005022269563913373   11    7    7    5
 0.00757822477837043   11    7   10    6
 0.007578224778370434   11    7   11    7
 0.002599305625037291   11    8    5    2
 0.002855168430121521   11    8    6    1
 -0.005008911257970963   11    8    6    3
 -0.005892755204568008   11    8    8    5
 -0.007292290470455675   11    8    9    6
 -0.001116032239903395   11    8   11    2
 0.007867796781062412   11    8   11    8
 0.02722220572862433   11    9    5    1
 -0.0113910661317802   11    9    5    3
 0.02610632230888573   11    9    6    2
 -0.01368590329620809   11    9    8    6
 -0.002623115578140537   11    9    9    5
 -0.005463315495636034   11    9   11    1
 -0.0009129375937332606   11    9   11    3
 0.02432366777937687   11    9   11    9
 0.01231649164518451   11   10    5    4
 0.01248459010441855   11   10    7    6
 -0.002980944008403363   11   10   10    5
 -0.002980944008403363   11   10   11    4
 0.01251083809033819   11   10   11   10
 0.3775349237155417   11   11    1    1
 0.377990092967239   11   11    2    2
 -0.009018315922451905   11   11    3    1
 0.3550639863952204   11   11    3    3
 0.3532924907315664   11   11    4    4
 0.3779254740219355   11   11    5    5
 0.3806281092914275   11   11    6    6
 0.3556589290825905   11   11    7    7
 -0.01712174720334097   11   11    8    2
 0.36526368890951   11   11    8    8
 -0.02866277870460208   11   11    9    1
 0.04914454307450319   11   11    9    3
 0.364368778412577   11   11    9    9
 -0.07004709297786932   11   11   10    4
 0.3361623880563158   11   11   10   10
 -0.07600898099467601   11   11   11    5
 0.3611840642369921   11   11   11   11
 0.0497120908016811   12    1    2    1
 0.02104598322118013   12    1    3    2
 0.04268398848587725   12    1    6    5
 0.0426839884858773   12    1    7    4
 0.01229170860987435   12    1    8    1
 0.03984058888951482   12    1    8    3
 -0.001634849236310706   12    1    9    2
 0.02764130580032663   12    1    9    8
 -0.03507667396458214   12    1   10    7
 -0.0350766739645821   12    1   11    6
 0.03061232967132191   12    1   12    1
 0.05828976622244083   12    2    1    1
 0.06186815538722104   12    2    2    2
 0.01753668651979954   12    2    3    1
 0.04967672452481586   12    2    3    3
 0.0510827702718324   12    2    4    4
 0.0510827702718324   12    2    5    5
 0.05288356330092007   12    2    6    6
 0.05288356330092014   12    2    7    7
 0.01446334706344132   12    2    8    2
 0.05163830010678781   12    2    8    8
 -0.003445341926973087   12    2    9    1
 0.0259433456892327   12    2    9    3
 0.0398751296629268   12    2    9    9
 -0.03744311166249212   12    2   10    4
 0.04644258439809697   12    2   10   10
 -0.03744311166249212   12    2   11    5
 0.04644258439809698   12    2   11   11
 0.03628297224769123   12    2   12    2
 0.06104377165672995   12    3    2    1
 0.01172182274330273   12    3    3    2
 0.05113342452054191   12    3    6    5
 0.05113342452054195   12    3    7    4
 -0.0001081261952474965   12    3    8    1
 0.0557146599640982   12    3    8    3
 -0.007181470808045364   12    3    9    2
 0.04261858008096507   12    3    9    8
 -0.03985542541973754   12    3   10    7
 -0.03985542541973749   12    3   11    6
 0.03313097586602525   12    3   12    1
 0.04452742941920726   12    3   12    3
 0.007279639602541043   12    4    4    2
 0.007150351537687961   12    4    7    1
 0.003459765210759359   12    4    7    3
 0.002141084823708029   12    4    8    4
 -0.001624167306902292   12    4    9    7
 -0.01271978881609126   12    4   10    2
 -0.004647052204633009   12    4   10    8
 0.01265627169690924   12    4   12    4
 0.007279639602541043   12    5    5    2
 0.007150351537687948   12    5    6    1
 0.003459765210759353   12    5    6    3
 0.002141084823708029   12    5    8    5
 -0.001624167306902292   12    5    9    6
 -0.01271978881609126   12    5   11    2
 -0.00464705220463301   12    5   11    8
 0.01265627169690924   12    5   12    5
 0.006418512544411083   12    6    5    1
 0.00379710962829835   12    6    5    3
 0.007137081272854683   12    6    6    2
 0.002544146587185693   12    6    8    6
 -0.002220141270214845   12    6    9    5
 -0.01285272976113263   12    6   11    1
 -0.005689595543266177   12    6   11    3
 -0.001618139515021791   12    6   11    9
 0.01348192589239279   12    6   12    6
 0.006418512544411117   12    7    4    1
 0.003797109628298359   12    7    4    3
 0.007137081272854732   12    7    7    2
 0.002544146587185705   12    7    8    7
 -0.002220141270214844   12    7    9    4
 -0.01285272976113264   12    7   10    1
 -0.005689595543266184   12    7   10    3
 -0.001618139515021784   12    7   10    9
 0.0134819258923928   12    7   12    7
 0.06769988718283948   12    8    1    1
 0.06881693530376699   12    8    2    2
 0.001676542242587895   12    8    3    1
 0.06393633687903957   12    8    3    3
 0.05747276933995708   12    8    4    4
 0.05747276933995708   12    8    5    5
 0.05867936100420604   12    8    6    6
 0.05867936100420611   12    8    7    7
 -0.001234711984966629   12    8    8    2
 0.06836044825727737   12    8    8    8
 -0.008083771743738959   12    8    9    1
 0.03213634993294916   12    8    9    3
 0.06449994409815415   12    8    9    9
 -0.03652613943365744   12    8   10    4
 0.0530703872947071   12    8   10   10
 -0.03652613943365746   12    8   11    5
 0.05307038729470711   12    8   11   11
 0.03493571018230121   12    8   12    2
 0.04348150102057675   12    8   12    8
 0.05962304665214516   12    9    2    1
 0.01953050799372716   12    9    3    2
 0.05059343714068794   12    9    6    5
 0.05059343714068798   12    9    7    4
 0.008546453728481966   12    9    8    1
 0.06266816148578645   12    9    8    3
 -0.006653772419201181   12    9    9    2
 0.03419057397384432   12    9    9    8
 -0.02486549154462862   12    9   10    7
 -0.02486549154462859   12    9   11    6
 0.01589000249052943   12    9   12    1
 0.02041005689812894   12    9   12    3
 0.02433021827627153   12    9   12    9
 -0.0318028853596207   12   10    4    2
 -0.0314153545848748   12   10    7    1
 -0.01059428090529934   12   10    7    3
 -0.006546038574151427   12   10    8    4
 0.0001220627531172863   12   10    9    7
 0.01031839476210848   12   10   10    2
 0.00134910519483756   12   10   10    8
 -0.002896063176007851   12   10   12    4
 0.02488603416773713   12   10   12   10
 -0.0318028853596207   12   11    5    2
 -0.03141535458487479   12   11    6    1
 -0.01059428090529934   12   11    6    3
 -0.006546038574151428   12   11    8    5
 0.0001220627531172807   12   11    9    6
 0.01031839476210848   12   11   11    2
 0.001349105194837558   12   11   11    8
 -0.002896063176007849   12   11   12    5
 0.02488603416773713   12   11   12   11
 0.3544684536485734   12   12    1    1
 0.3628213750652888   12   12    2    2
 0.0425999021575944   12   12    3    1
 0.3491728541286013   12   12    3    3
 0.3364318605045398   12   12    4    4
 0.3364318605045398   12   12    5    5
 0.3406772029513711   12   12    6    6
 0.3406772029513713   12   12    7    7
 0.03738759135383268   12   12    8    2
 0.3574497095482866   12   12    8    8
 -0.01303230035452629   12   12    9    1
 0.05682200642504922   12   12    9    3
 0.3093584562321249   12   12    9    9
 -0.06445808703708368   12   12   10    4
 0.3182475231074495   12   12   10   10
 -0.0644580870370836   12   12   11    5
 0.3182475231074494   12   12   11   11
 0.04833705885686852   12   12   12    2
 0.04452211454506599   12   12   12    8
 0.3578664464460267   12   12   12   12
 0.02218002143324123   13    1    5    2
 0.02224346944398483   13    1    6    1
 0.0009389953900765643   13    1    6    3
 -0.003014416922992716   13    1    8    5
 -0.009616395546486783   13    1    9    6
 -0.02036200176925636   13    1   11    2
 0.001684147667272818   13    1   11    8
 0.01216432614097335   13    1   12    5
 -0.008355529892773847   13    1   12   11
 0.01968581087284226   13    1   13    1
 0.02159117818202164   13    2    5    1
 0.00129583811308287   13    2    5    3
 0.02246235073885952   13    2    6    2
 -0.002430507106698817   13    2    8    6
 -0.009822853946443885   13    2    9    5
 -0.02063671847723609   13    2   11    1
 -0.001579215046392742   13    2   11    3
 0.006328804823498757   13    2   11    9
 0.0132081006070656   13    2   12    6
 0.02050600703546669   13    2   13    2
 0.0008246930770403601   13    3    5    2
 0.000627531990300129   13    3    6    1
 0.004121537142396862   13    3    6    3
 0.004350205425371436   13    3    8    5
 0.005471797161291619   13    3    9    6
 -0.001656032718512446   13    3   11    2
 -0.007088606761439727   13    3   11    8
 0.005908422424648589   13    3   12    5
 -0.002311971277023157   13    3   12   11
 0.001048693537268234   13    3   13    1
 0.006817035256552196   13    3   13    3
 0.00425664460522216   13    4    6    4
 0.004256644605222167   13    4    7    5
 -0.007472731985219587   13    4   10    6
 -0.007472731985219591   13    4   11    7
 0.007417145110147568   13    4   13    4
 0.08412922430741332   13    5    2    1
 0.007883264966978941   13    5    3    2
 0.07950817930568846   13    5    6    5
 0.07099489009524415   13    5    7    4
 -0.008990278568570785   13    5    8    1
 0.06970560089937962   13    5    8    3
 -0.02466202361517347   13    5    9    2
 0.05478655269821288   13    5    9    8
 -0.05345707151156899   13    5   10    7
 -0.06840253548200811   13    5   11    6
 0.03308609456290497   13    5   12    1
 0.03784465385140912   13    5   12    3
 0.02232564136608483   13    5   12    9
 0.06566691319949249   13    5   13    5
 0.0920098780108863   13    6    1    1
 0.09390503477908113   13    6    2    2
 0.001073638648902098   13    6    3    1
 0.07527171724294172   13    6    3    3
 0.07791270819775828   13    6    4    4
 0.08621982625176342   13    6    5    5
 0.08898444727792465   13    6    6    6
 0.08010818060399061   13    6    7    7
 -0.005975411014684144   13    6    8    2
 0.08511710474547073   13    6    8    8
 -0.0269975715856945   13    6    9    1
 0.04422416486114589   13    6    9    3
 0.07641723207394496   13    6    9    9
 -0.05363890860538974   13    6   10    4
 0.07078326187803273   13    6   10   10
 -0.06890744165011414   13    6   11    5
 0.07661383842700337   13    6   11   11
 0.03730541682374716   13    6   12    2
 0.03715081452720234   13    6   12    8
 0.0620555330605181   13    6   12   12
 0.06906390082806485   13    6   13    6
 0.004153559027002548   13    7    5    4
 0.004438133336967074   13    7    7    6
 -0.007634266522362184   13    7   10    5
 -0.007634266522362184   13    7   11    4
 0.00291528827448531   13    7   11   10
 0.007696395847581988   13    7   13    7
 -0.004221775580252177   13    8    5    1
 0.004155384959198407   13    8    5    3
 -0.004053593602310706   13    8    6    2
 0.005554180216985269   13    8    8    6
 0.00772648437517754   13    8    9    5
 0.002263644371435151   13    8   11    1
 -0.007364870057400677   13    8   11    3
 -0.004731560646639418   13    8   11    9
 0.004677675681152336   13    8   12    6
 -0.001698397535743579   13    8   13    2
 0.008094498040158214   13    8   13    8
 -0.02121047148827173   13    9    5    2
 -0.02170726346453515   13    9    6    1
 0.007950667153725438   13    9    6    3
 0.01158581742121027   13    9    8    5
 0.007062495786790165   13    9    9    6
 0.007807679944544133   13    9   11    2
 -0.005200444847687798   13    9   11    8
 0.0005246541114381268   13    9   12    5
 0.005510705170358282   13    9   12   11
 -0.007516786019595639   13    9   13    1
 0.003101014167858255   13    9   13    3
 0.01613739396526121   13    9   13    9
 -0.01208114576732468   13   10    6    4
 -0.01208114576732468   13   10    7    5
 0.003416494860196327   13   10   10    6
 0.003416494860196339   13   10   11    7
 -0.002818735148443974   13   10   13    4
 0.01199859556465989   13   10   13   10
 -0.1967950222893754   13   11    2    1
 -0.03024804023142464   13   11    3    2
 -0.2009131885730498   13   11    6    5
 -0.1767508970384006   13   11    7    4
 0.006243261744853632   13   11    8    1
 -0.1701666900929908   13   11    8    3
 0.03290634268705639   13   11    9    2
 -0.08737402242179956   13   11    9    8
 0.07083063894445778   13   11   10    7
 0.07766362866485027   13   11   11    6
 -0.03698278759419964   13   11   12    1
 -0.04472248739020249   13   11   12    3
 -0.04666931083580672   13   11   12    9
 -0.06821603099673651   13   11   13    5
 0.183358820083268   13   11   13   11
 0.03367766429488758   13   12    5    1
 0.009418569898461633   13   12    5    3
 0.03499576786130919   13   12    6    2
 0.006521350922188566   13   12    8    6
 0.001327226147496865   13   12    9    5
 -0.008516986161141353   13   12   11    1
 -0.004266328424537965   13   12   11    3
 0.008239317336676684   13   12   11    9
 0.001762399083545561   13   12   12    6
 0.007673927618793301   13   12   13    2
 6.565889333363864e-05   13   12   13    8
 0.02769432498803715   13   12   13   12
 0.3734626210382244   13   13    1    1
 0.3744520224572654   13   13    2    2
 -0.006313477276357656   13   13    3    1
 0.349893865282904   13   13    3    3
 0.3499228258728311   13   13    4    4
 0.3747498484994061   13   13    5    5
 0.3777152218984324   13   13    6    6
 0.3524801052925891   13   13    7    7
 -0.01485923813023843   13   13    8    2
 0.3610271183799744   13   13    8    8
 -0.02956971671506637   13   13    9    1
 0.05110176807303832   13   13    9    3
 0.3560120352803072   13   13    9    9
 -0.06902407991788519   13   13   10    4
 0.332825668185336   13   13   10   10
 -0.0744686649876182   13   13   11    5
 0.3579828104152936   13   13   11   11
 0.04468682947904239   13   13   12    2
 0.05081705743657767   13   13   12    8
 0.3180280913569298   13   13   12   12
 0.07448832033871364   13   13   13    6
 0.3557978064629698   13   13   13   13
 0.02218002143324116   14    1    4    2
 0.02224346944398478   14    1    7    1
 0.0009389953900765561   14    1    7    3
 -0.003014416922992715   14    1    8    4
 -0.009616395546486779   14    1    9    7
 -0.02036200176925633   14    1   10    2
 0.001684147667272814   14    1   10    8
 0.01216432614097333   14    1   12    4
 -0.008355529892773815   14    1   12   10
 0.0196858108728422   14    1   14    1
 0.02159117818202157   14    2    4    1
 0.001295838113082862   14    2    4    3
 0.02246235073885946   14    2    7    2
 -0.002430507106698818   14    2    8    7
 -0.009822853946443874   14    2    9    4
 -0.02063671847723606   14    2   10    1
 -0.001579215046392736   14    2   10    3
 0.006328804823498729   14    2   10    9
 0.0132081006070656   14    2   12    7
 0.02050600703546663   14    2   14    2
 0.0008246930770403447   14    3    4    2
 0.0006275319903001157   14    3    7    1
 0.004121537142396852   14    3    7    3
 0.004350205425371421   14    3    8    4
 0.005471797161291615   14    3    9    7
 -0.001656032718512441   14    3   10    2
 -0.007088606761439721   14    3   10    8
 0.005908422424648581   14    3   12    4
 -0.00231197127702314   14    3   12   10
 0.001048693537268227   14    3   14    1
 0.006817035256552184   14    3   14    3
 0.08412922430741307   14    4    2    1
 0.007883264966978892   14    4    3    2
 0.07099489009524389   14    4    6    5
 0.07950817930568826   14    4    7    4
 -0.008990278568570783   14    4    8    1
 0.06970560089937942   14    4    8    3
 -0.02466202361517339   14    4    9    2
 0.05478655269821279   14    4    9    8
 -0.06840253548200807   14    4   10    7
 -0.05345707151156884   14    4   11    6
 0.03308609456290489   14    4   12    1
 0.03784465385140908   14    4   12    3
 0.02232564136608485   14    4   12    9
 0.05083262297919725   14    4   13    5
 -0.06257856069984838   14    4   13   11
 0.06566691319949226   14    4   14    4
 0.004256644605222143   14    5    6    4
 0.004256644605222151   14    5    7    5
 -0.00747273198521958   14    5   10    6
 -0.007472731985219583   14    5   11    7
 0.007417145110147563   14    5   13    4
 -0.002818735148443963   14    5   13   10
 0.007417145110147556   14    5   14    5
 0.004153559027002518   14    6    5    4
 0.004438133336967045   14    6    7    6
 -0.007634266522362173   14    6   10    5
 -0.007634266522362173   14    6   11    4
 0.002915288274485284   14    6   11   10