 &FCI NORB=  26,NELEC=10,MS2=0,
  ORBSYM=1,1,1,1,1,1,1,1,1,1,1,1,1,1,1,1,1,1,1,1,1,1,1,1,1,1
  ISYM=1,
 &END
 0.4325826611141397    1    1    1    1
 0.2618363263689515    2    1    2    1
 0.4334657255386584    2    2    1    1
 0.4353854825541885    2    2    2    2
 -0.008998153803032231    3    1    1    1
 -0.0008409708803174191    3    1    2    2
 0.06793395699839748    3    1    3    1
 0.03240013146739328    3    2    2    1
 0.06315033330118498    3    2    3    2
 0.4069986890803111    3    3    1    1
 0.406914615637079    3    3    2    2
 -0.01024812889174853    3    3    3    1
 0.4094942283784533    3    3    3    3
 0.06723132826381882    4    1    4    1
 0.0648152644814062    4    2    4    2
 0.0008866258335493267    4    3    4    1
 0.01625273036717906    4    3    4    3
 0.4080412115675577    4    4    1    1
 0.4089517757133582    4    4    2    2
 -0.007572261080690671    4    4    3    1
 0.3760886531938849    4    4    3    3
 0.4094634912540465    4    4    4    4
 0.06723132826381882    5    1    5    1
 0.06481526448140622    5    2    5    2
 0.0008866258335493268    5    3    5    1
 0.01625273036717906    5    3    5    3
 0.0163375178724685    5    4    5    4
 0.4080412115675577    5    5    1    1
 0.4089517757133582    5    5    2    2
 -0.007572261080690671    5    5    3    1
 0.3760886531938848    5    5    3    3
 0.3767884555091095    5    5    4    4
 0.4094634912540465    5    5    5    5
 0.06483977888733405    6    1    5    2
 0.06488686074101359    6    1    6    1
 0.06797103926267967    6    2    5    1
 0.002219367003138727    6    2    5    3
 0.06884409327533526    6    2    6    2
 0.003868970977527718    6    3    5    2
 0.00328436871345896    6    3    6    1
 0.01562867159939588    6    3    6    3
 0.01641639700760964    6    4    6    4
 0.2406192270695323    6    5    2    1
 0.02807023284866813    6    5    3    2
 0.2450825312034503    6    5    6    5
 0.410529921072245    6    6    1    1
 0.4117217131672966    6    6    2    2
 -0.005716817138055211    6    6    3    1
 0.3776877246050477    6    6    3    3
 0.3788919007238873    6    6    4    4
 0.4120137153100779    6    6    5    5
 0.4147046274764626    6    6    6    6
 0.06483977888733404    7    1    4    2
 0.06488686074101355    7    1    7    1
 0.06797103926267964    7    2    4    1
 0.002219367003138726    7    2    4    3
 0.06884409327533524    7    2    7    2
 0.003868970977527717    7    3    4    2
 0.003284368713458958    7    3    7    1
 0.01562867159939588    7    3    7    3
 0.2406192270695323    7    4    2    1
 0.02807023284866812    7    4    3    2
 0.2122497371882309    7    4    6    5
 0.2450825312034502    7    4    7    4
 0.01641639700760964    7    5    6    4
 0.01641639700760963    7    5    7    5
 0.01656090729309527    7    6    5    4
 0.01680025347559182    7    6    7    6
 0.4105299210722448    7    7    1    1
 0.4117217131672965    7    7    2    2
 -0.005716817138055213    7    7    3    1
 0.3776877246050477    7    7    3    3
 0.4120137153100777    7    7    4    4
 0.3788919007238873    7    7    5    5
 0.3811041205252788    7    7    6    6
 0.4147046274764624    7    7    7    7
 -0.004775403389287608    8    1    2    1
 0.06160891555858635    8    1    3    2
 -0.005880883986401199    8    1    6    5
 -0.005880883986401198    8    1    7    4
 0.06555605200180932    8    1    8    1
 -0.01738441326656532    8    2    1    1
 -0.0093801341147916    8    2    2    2
 0.06877293847104356    8    2    3    1
 -0.01391023319373075    8    2    3    3
 -0.01592559875179555    8    2    4    4
 -0.01592559875179555    8    2    5    5
 -0.01430679199131212    8    2    6    6
 -0.01430679199131212    8    2    7    7
 0.0708248134092761    8    2    8    2
 0.2335160049417301    8    3    2    1
 0.02836207966526499    8    3    3    2
 0.2058226339387211    8    3    6    5
 0.2058226339387211    8    3    7    4
 -0.005211735953908043    8    3    8    1
 0.2309204641406047    8    3    8    3
 -0.003290324850660207    8    4    4    2
 -0.003903244288447076    8    4    7    1
 0.01590122892455376    8    4    7    3
 0.0170336803447862    8    4    8    4
 -0.003290324850660206    8    5    5    2
 -0.003903244288447078    8    5    6    1
 0.01590122892455376    8    5    6    3
 0.01703368034478619    8    5    8    5
 -0.004662295752575812    8    6    5    1
 0.01653536561300551    8    6    5    3
 -0.003427860217208852    8    6    6    2
 0.01754395198279112    8    6    8    6
 -0.004662295752575811    8    7    4    1
 0.01653536561300551    8    7    4    3
 -0.003427860217208851    8    7    7    2
 0.01754395198279111    8    7    8    7
 0.4207571178847587    8    8    1    1
 0.4207279111014292    8    8    2    2
 -0.01357849264425251    8    8    3    1
 0.4194542749205074    8    8    3    3
 0.3877144329116283    8    8    4    4
 0.3877144329116283    8    8    5    5
 0.389657430696025    8    8    6    6
 0.3896574306960248    8    8    7    7
 -0.01912937158877729    8    8    8    2
 0.4338112848101404    8    8    8    8
 -0.03302422781614374    9    1    1    1
 -0.03153624275863427    9    1    2    2
 0.02092164657122549    9    1    3    1
 -0.02206445736112389    9    1    3    3
 -0.02880360454999283    9    1    4    4
 -0.02880360454999282    9    1    5    5
 -0.02931501000210877    9    1    6    6
 -0.02931501000210875    9    1    7    7
 0.02556227767535053    9    1    8    2
 -0.03179094677382724    9    1    8    8
 0.02935268582703551    9    1    9    1
 -0.03565677299010476    9    2    2    1
 0.02227338332574506    9    2    3    2
 -0.03271101556876106    9    2    6    5
 -0.03271101556876106    9    2    7    4
 0.02925489706372765    9    2    8    1
 -0.03087347938546544    9    2    8    3
 0.02676258370480014    9    2    9    2
 0.0747395357975663    9    3    1    1
 0.07738965588677806    9    3    2    2
 0.008186050170690967    9    3    3    1
 0.06271686158511654    9    3    3    3
 0.06250829284378995    9    3    4    4
 0.06250829284378995    9    3    5    5
 0.0645084578447183    9    3    6    6
 0.06450845784471823    9    3    7    7
 0.001751426096676362    9    3    8    2
 0.07695777749278063    9    3    8    8
 -0.02851768821987887    9    3    9    1
 0.06457854993377567    9    3    9    3
 -0.005045316604548601    9    4    4    1
 0.003840136927396859    9    4    4    3
 -0.005127089247868967    9    4    7    2
 0.005684605735232884    9    4    8    7
 0.01096658737690374    9    4    9    4
 -0.005045316604548601    9    5    5    1
 0.003840136927396858    9    5    5    3
 -0.005127089247868971    9    5    6    2
 0.005684605735232889    9    5    8    6
 0.01096658737690375    9    5    9    5
 -0.007099170270674619    9    6    5    2
 -0.007300142479331522    9    6    6    1
 0.005104293089769897    9    6    6    3
 0.006570763214753103    9    6    8    5
 0.00959356550303871    9    6    9    6
 -0.007099170270674609    9    7    4    2
 -0.007300142479331506    9    7    7    1
 0.00510429308976989    9    7    7    3
 0.006570763214753096    9    7    8    4
 0.009593565503038699    9    7    9    7
 0.1126077052296954    9    8    2    1
 0.003429679883337095    9    8    3    2
 0.09722439591514079    9    8    6    5
 0.09722439591514073    9    8    7    4
 -0.01420280124280512    9    8    8    1
 0.1073508703722884    9    8    8    3
 -0.02965500688406918    9    8    9    2
 0.07851367375117986    9    8    9    8
 0.397311652098691    9    9    1    1
 0.3917678010518214    9    9    2    2
 -0.05366075846091811    9    9    3    1
 0.3980766849855339    9    9    3    3
 0.3717222748795952    9    9    4    4
 0.3717222748795952    9    9    5    5
 0.371828999582839    9    9    6    6
 0.3718289995828389    9    9    7    7
 -0.05721872009489651    9    9    8    2
 0.4065814727971624    9    9    8    8
 -0.0322170658611775    9    9    9    1
 0.05008754798396545    9    9    9    3
 0.4359194787099095    9    9    9    9
 -0.0224964671903988   10    1    4    1
 -0.001765804574916237   10    1    4    3
 -0.02320082948256276   10    1    7    2
 0.00125881657848734   10    1    8    7
 0.008852004738023398   10    1    9    4
 0.02089954283639004   10    1   10    1
 -0.02449904934489077   10    2    4    2
 -0.02449598629360638   10    2    7    1
 -0.001621105684504472   10    2    7    3
 0.001632922152615381   10    2    8    4
 0.007851700958190955   10    2    9    7
 0.02104001487616367   10    2   10    2
 -0.003653966898561753   10    3    4    1
 -0.003359870193756204   10    3    4    3
 -0.003767706406687715   10    3    7    2
 -0.003957652964891999   10    3    8    7
 -0.00721813302156432   10    3    9    4
 0.0006404972606291688   10    3   10    1
 0.008089635632264145   10    3   10    3
 -0.09201809592559704   10    4    1    1
 -0.09379793782616466   10    4    2    2
 -0.0034527250706607   10    4    3    1
 -0.07400764513057731   10    4    3    3
 -0.08684038413487911   10    4    4    4
 -0.07789563946538848   10    4    5    5
 -0.07952314494686576   10    4    6    6
 -0.08888519394902522   10    4    7    7
 0.002325144973562434   10    4    8    2
 -0.08285404383823693   10    4    8    8
 0.0233023340101601   10    4    9    1
 -0.04831074637934644   10    4    9    3
 -0.07161750472438308   10    4    9    9
 0.06908945979930875   10    4   10    4
 -0.004472372334745295   10    5    5    4
 -0.004681024501079753   10    5    7    6
 0.007607830059797346   10    5   10    5
 -0.004863826148182915   10    6    6    4
 -0.004863826148182909   10    6    7    5
 0.007567050238370835   10    6   10    6
 -0.09369131453883098   10    7    2    1
 -0.008486653941652848   10    7    3    2
 -0.07936716633417173   10    7    6    5
 -0.08909481863053756   10    7    7    4
 0.005728062784270888   10    7    8    1
 -0.07777738413496037   10    7    8    3
 0.02168731290109565   10    7    9    2
 -0.05787534801544787   10    7    9    8
 0.07076828729793698   10    7   10    7
 0.002186814536698601   10    8    4    2
 0.00236784111090609   10    8    7    1
 -0.004856562782542515   10    8    7    3
 -0.005531758946198979   10    8    8    4
 -0.00729609481528897   10    8    9    7
 -0.0008844454802629909   10    8   10    2
 0.007775970574900408   10    8   10    8
 0.02293087790817197   10    9    4    1
 -0.01148470984953668   10    9    4    3
 0.022103122675517   10    9    7    2
 -0.01314056515759019   10    9    8    7
 -0.003000975819601463   10    9    9    4
 -0.004893620119346154   10    9   10    1
 0.0003890918881907474   10    9   10    3
 0.02075171419968961   10    9   10    9
 0.37090744755003   10   10    1    1
 0.3714465330345312   10   10    2    2
 -0.007822441445591129   10   10    3    1
 0.3474102532231386   10   10    3    3
 0.3717796903415527   10   10    4    4
 0.3472090677059283   10   10    5    5
 0.348932524396589   10   10    6    6
 0.3737551617135603   10   10    7    7
 -0.01444712353039873   10   10    8    2
 0.3568529633622426   10   10    8    8
 -0.02455332795685063   10   10    9    1
 0.05443176632584761   10   10    9    3
 0.3525226150379539   10   10    9    9
 -0.07583397241838384   10   10   10    4
 0.3543437173307784   10   10   10   10
 -0.0224964671903988   11    1    5    1
 -0.001765804574916238   11    1    5    3
 -0.02320082948256277   11    1    6    2
 0.001258816578487339   11    1    8    6
 0.008852004738023396   11    1    9    5
 0.02089954283639004   11    1   11    1
 -0.02449904934489076   11    2    5    2
 -0.02449598629360639   11    2    6    1
 -0.001621105684504475   11    2    6    3
 0.001632922152615379   11    2    8    5
 0.007851700958190959   11    2    9    6
 0.02104001487616367   11    2   11    2
 -0.003653966898561756   11    3    5    1
 -0.003359870193756204   11    3    5    3
 -0.003767706406687718   11    3    6    2
 -0.003957652964892005   11    3    8    6
 -0.00721813302156432   11    3    9    5
 0.00064049726062917   11    3   11    1
 0.008089635632264147   11    3   11    3
 -0.004472372334745295   11    4    5    4
 -0.004681024501079753   11    4    7    6
 0.007607830059797346   11    4   10    5
 0.007607830059797346   11    4   11    4
 -0.09201809592559701   11    5    1    1
 -0.09379793782616466   11    5    2    2
 -0.003452725070660703   11    5    3    1
 -0.07400764513057731   11    5    3    3
 -0.07789563946538844   11    5    4    4
 -0.08684038413487911   11    5    5    5
 -0.08888519394902535   11    5    6    6
 -0.07952314494686567   11    5    7    7
 0.002325144973562431   11    5    8    2
 -0.08285404383823691   11    5    8    8
 0.02330233401016011   11    5    9    1
 -0.04831074637934644   11    5    9    3
 -0.07161750472438309   11    5    9    9
 0.05387379967971405   11    5   10    4
 -0.06983894467868719   11    5   10   10
 0.06908945979930879   11    5   11    5
 -0.0936913145388311   11    6    2    1
 -0.008486653941652865   11    6    3    2
 -0.08909481863053773   11    6    6    5
 -0.0793671663341718   11    6    7    4
 0.005728062784270888   11    6    8    1
 -0.07777738413496048   11    6    8    3
 0.02168731290109566   11    6    9    2
 -0.05787534801544791   11    6    9    8
 0.05563418682119532   11    6   10    7
 0.07076828729793712   11    6   11    6
 -0.004863826148182905   11    7    6    4
 -0.004863826148182902   11    7    7    5
 0.007567050238370832   11    7   10    6
 0.007567050238370829   11    7   11    7
 0.002186814536698598   11    8    5    2
 0.002367841110906088   11    8    6    1
 -0.00485656278254252   11    8    6    3
 -0.005531758946198979   11    8    8    5
 -0.007296094815288973   11    8    9    6
 -0.0008844454802629898   11    8   11    2
 0.007775970574900407   11    8   11    8
 0.02293087790817197   11    9    5    1
 -0.01148470984953668   11    9    5    3
 0.022103122675517   11    9    6    2
 -0.0131405651575902   11    9    8    6
 -0.003000975819601465   11    9    9    5
 -0.004893620119346153   11    9   11    1
 0.0003890918881907467   11    9   11    3
 0.02075171419968962   11    9   11    9
 0.01228531131781216   11   10    5    4
 0.01241131865848568   11   10    7    6
 -0.002997513869848327   11   10   10    5
 -0.002997513869848327   11   10   11    4
 0.01241821464279017   11   10   11   10
 0.37090744755003   11   11    1    1
 0.3714465330345312   11   11    2    2
 -0.007822441445591129   11   11    3    1
 0.3474102532231385   11   11    3    3
 0.3472090677059284   11   11    4    4
 0.3717796903415527   11   11    5    5
 0.3737551617135604   11   11    6    6
 0.348932524396589   11   11    7    7
 -0.01444712353039873   11   11    8    2
 0.3568529633622427   11   11    8    8
 -0.02455332795685062   11   11    9    1
 0.05443176632584763   11   11    9    3
 0.352522615037954   11   11    9    9
 -0.06983894467868722   11   11   10    4
 0.3295072880451979   11   11   10   10
 -0.07583397241838385   11   11   11    5
 0.3543437173307784   11   11   11   11
 0.0225476496972305   12    1    5    2
 0.02256702095806824   12    1    6    1
 0.00087357713860565   12    1    6    3
 -0.002210258860264984   12    1    8    5
 -0.008174942157947613   12    1    9    6
 -0.02045404963663864   12    1   11    2
 0.001302588322089356   12    1   11    8
 0.01996914212210711   12    1   12    1
 0.0220199092674992   12    2    5    1
 0.001177424335762435   12    2    5    3
 0.02264622422128005   12    2    6    2
 -0.001716994184293278   12    2    8    6
 -0.008362423943261301   12    2    9    5
 -0.02069863875361938   12    2   11    1
 -0.001184766462743485   12    2   11    3
 0.005370617875194019   12    2   11    9
 0.02060659735808124   12    2   12    2
 0.0009981928469860581   12    3    5    2
 0.0008542864750819772   12    3    6    1
 0.004087844588976968   12    3    6    3
 0.004316184894909376   12    3    8    5
 0.006023195522598715   12    3    9    6
 -0.00135088394764945   12    3   11    2
 -0.007194073398421754   12    3   11    8
 0.0008922844562566116   12    3   12    1
 0.006949717774950186   12    3   12    3
 0.004347237962807254   12    4    6    4
 0.004347237962807249   12    4    7    5
 -0.007505094245005766   12    4   10    6
 -0.007505094245005764   12    4   11    7
 0.007464403328338341   12    4   12    4
 0.08625005332071503   12    5    2    1
 0.006518834026942328   12    5    3    2
 0.08143590319988912   12    5    6    5
 0.07274142727427453   12    5    7    4
 -0.006714273324624531   12    5    8    1
 0.07142707603771883   12    5    8    3
 -0.02125630499894378   12    5    9    2
 0.05530952118939143   12    5    9    8
 -0.05356097998960158   12    5   10    7
 -0.0685711684796132   12    5   11    6
 0.06664775504590086   12    5   12    5
 0.09183014775947443   12    6    1    1
 0.09332286998260571   12    6    2    2
 0.001411705824530306   12    6    3    1
 0.07457531330851103   12    6    3    3
 0.07775997299204171   12    6    4    4
 0.08629738378693377   12    6    5    5
 0.08822180648695296   12    6    6    6
 0.07929728931908256   12    6    7    7
 -0.004191786823382939   12    6    8    2
 0.08313202761452144   12    6    8    8
 -0.02313112624533626   12    6    9    1
 0.04717040891093879   12    6    9    3
 0.07420040634246268   12    6    9    9
 -0.05369215381364217   12    6   10    4
 0.07008293796981356   12    6   10   10
 -0.06893885251448183   12    6   11    5
 0.07594029739881755   12    6   11   11
 0.06897326520752504   12    6   12    6
 0.004268705397446006   12    7    5    4
 0.004462258583935133   12    7    7    6
 -0.007623349350419813   12    7   10    5
 -0.007623349350419813   12    7   11    4
 0.002928679714501956   12    7   11   10
 0.007665641905539363   12    7   12    7
 -0.002890520704937906   12    8    5    1
 0.004174308448326693   12    8    5    3
 -0.002738200446984401   12    8    6    2
 0.005180658340590063   12    8    8    6
 0.007685282534202677   12    8    9    5
 0.001709670737993474   12    8   11    1
 -0.007513295849794635   12    8   11    3
 -0.004031800607451863   12    8   11    9
 -0.001260073611733054   12    8   12    2
 0.007922584402340328   12    8   12    8
 -0.01843344736202594   12    9    5    2
 -0.01884776339314564   12    9    6    1
 0.00914605862703349   12    9    6    3
 0.0116132233992554   12    9    8    5
 0.006019911991990833   12    9    9    6
 0.006499682801186584   12    9   11    2
 -0.004705316480057379   12    9   11    8
 -0.006333275130461364   12    9   12    1
 0.002972467433453381   12    9   12    3
 0.01507126114694507   12    9   12    9
 -0.0121414720869065   12   10    6    4
 -0.0121414720869065   12   10    7    5
 0.003285434131886165   12   10   10    6
 0.003285434131886158   12   10   11    7
 -0.002878737230993966   12   10   12    4
 0.01209757130128101   12   10   12   10
 -0.2030711611132866   12   11    2    1
 -0.02509904281092725   12   11    3    2
 -0.2068024123181383   12   11    6    5
 -0.1825194681443252   12   11    7    4
 0.003673807792070098   12   11    8    1
 -0.1766570574624618   12   11    8    3
 0.02848284463365779   12   11    9    2
 -0.08568584108419595   12   11    9    8
 0.06996780718043595   12   11   10    7
 0.07653867544420842   12   11   11    6
 -0.06998371494038723   12   11   12    5
 0.1892627527525944   12   11   12   11
 0.368607889677381   12   12    1    1
 0.3694002002069363   12   12    2    2
 -0.006140972465642567   12   12    3    1
 0.3443799161248947   12   12    3    3
 0.3453158589477162   12   12    4    4
 0.3700784995428933   12   12    5    5
 0.3721639988096869   12   12    6    6
 0.3471223526310723   12   12    7    7
 -0.01298285730899219   12   12    8    2
 0.354326779513948   12   12    8    8
 -0.02512016887476707   12   12    9    1
 0.05552080807919826   12   12    9    3
 0.3474831964400656   12   12    9    9
 -0.06915625882084935   12   12   10    4
 0.3276378610581762   12   12   10   10
 -0.07475018088684475   12   12   11    5
 0.3526688084552785   12   12   11   11
 0.07461164848170324   12   12   12    6
 0.3514305590720967   12   12   12   12
 0.02254764969723053   13    1    4    2
 0.02256702095806825   13    1    7    1
 0.0008735771386056506   13    1    7    3
 -0.002210258860264987   13    1    8    4
 -0.008174942157947609   13    1    9    7
 -0.02045404963663865   13    1   10    2
 0.001302588322089358   13    1   10    8
 0.01996914212210714   13    1   13    1
 0.02201990926749923   13    2    4    1
 0.001177424335762436   13    2    4    3
 0.02264622422128007   13    2    7    2
 -0.00171699418429328   13    2    8    7
 -0.008362423943261301   13    2    9    4
 -0.02069863875361939   13    2   10    1
 -0.001184766462743486   13    2   10    3
 0.005370617875194034   13    2   10    9
 0.02060659735808126   13    2   13    2
 0.0009981928469860587   13    3    4    2
 0.0008542864750819768   13    3    7    1
 0.004087844588976972   13    3    7    3
 0.004316184894909383   13    3    8    4
 0.006023195522598715   13    3    9    7
 -0.00135088394764945   13    3   10    2
 -0.007194073398421756   13    3   10    8
 0.0008922844562566117   13    3   13    1
 0.006949717774950189   13    3   13    3
 0.08625005332071516   13    4    2    1
 0.006518834026942342   13    4    3    2
 0.07274142727427471   13    4    6    5
 0.08143590319988922   13    4    7    4
 -0.006714273324624536   13    4    8    1
 0.07142707603771896   13    4    8    3
 -0.02125630499894381   13    4    9    2
 0.05530952118939145   13    4    9    8
 -0.06857116847961317   13    4   10    7
 -0.05356097998960166   13    4   11    6
 0.05171894838922416   13    4   12    5
 -0.06422624047839935   13    4   12   11
 0.0666477550459009   13    4   13    4
 0.004347237962807264   13    5    6    4
 0.004347237962807259   13    5    7    5
 -0.00750509424500577   13    5   10    6
 -0.007505094245005768   13    5   11    7
 0.007464403328338343   13    5   12    4
 -0.002878737230993973   13    5   12   10
 0.007464403328338346   13    5   13    5
 0.004268705397446025   13    6    5    4
 0.004462258583935151   13    6    7    6
 -0.007623349350419817   13    6   10    5
 -0.007623349350419817   13    6   11    4
 0.002928679714501971   13    6   11   10
 0.007665641905539369   13    6   12    7
 0.007665641905539373   13    6   13    6
 0.09183014775947446   13    7    1    1
 0.09332286998260572   13    7    2    2
 0.001411705824530303   13    7    3    1
 0.07457531330851105   13    7    3    3
 0.08629738378693377   13    7    4    4
 0.07775997299204174   13    7    5    5
 0.07929728931908266   13    7    6    6
 0.08822180648695288   13    7    7    7
 -0.00419178682338294   13    7    8    2
 0.08313202761452144   13    7    8    8
 -0.02313112624533626   13    7    9    1
 0.04717040891093877   13    7    9    3
 0.0742004063424626   13    7    9    9
 -0.06893885251448179   13    7   10    4
 0.07594029739881752   13    7   10   10
 -0.05369215381364216   13    7   11    5
 0.07008293796981359   13    7   11   11
 0.05364198139644628   13    7   12    6
 0.06922921662026542   13    7   12   12
 0.06897326520752502   13    7   13    7
 -0.00289052070493791   13    8    4    1
 0.004174308448326702   13    8    4    3
 -0.002738200446984404   13    8    7    2
 0.005180658340590066   13    8    8    7
 0.007685282534202682   13    8    9    4
 0.001709670737993476   13    8   10    1
 -0.007513295849794637   13    8   10    3
 -0.004031800607451873   13    8   10    9
 -0.001260073611733057   13    8   13    2
 0.007922584402340336   13    8   13    8
 -0.01843344736202594   13    9    4    2
 -0.01884776339314563   13    9    7    1
 0.009146058627033491   13    9    7    3
 0.0116132233992554   13    9    8    4
 0.006019911991990829   13    9    9    7
 0.006499682801186583   13    9   10    2
 -0.004705316480057385   13    9   10    8
 -0.006333275130461374   13    9   13    1
 0.002972467433453392   13    9   13    3
 0.01507126114694508   13    9   13    9
 -0.2030711611132866   13   10    2    1
 -0.02509904281092725   13   10    3    2
 -0.1825194681443253   13   10    6    5
 -0.2068024123181383   13   10    7    4
 0.003673807792070099   13   10    8    1
 -0.1766570574624619   13   10    8    3
 0.02848284463365779   13   10    9    2
 -0.08568584108419595   13   10    9    8
 0.07653867544420831   13   10   10    7
 0.06996780718043606   13   10   11    6
 -0.06422624047839928   13   10   12    5
 0.1650676101500322   13   10   12   11
 -0.06998371494038735   13   10   13    4
 0.1892627527525944   13   10   13   10
 -0.0121414720869065   13   11    6    4
 -0.0121414720869065   13   11    7    5
 0.00328543413188617   13   11   10    6
 0.003285434131886163   13   11   11    7
 -0.002878737230993971   13   11   12    4
 0.01209757130128101   13   11   12   10
 -0.002878737230993978   13   11   13    5
 0.01209757130128101   13   11   13   11
 0.01238132029758861   13   12    5    4
 0.01252082308930722   13   12    7    6
 -0.002796961032997685   13   12   10    5
 -0.002796961032997685   13   12   11    4
 0.01251547369855104   13   12   11   10
 0.002691215930718888   13   12   12    7
 0.002691215930718902   13   12   13    6
 0.01268519722390731   13   12   13   12
 0.368607889677381   13   13    1    1
 0.3694002002069364   13   13    2    2
 -0.006140972465642568   13   13    3    1
 0.3443799161248948   13   13    3    3
 0.3700784995428935   13   13    4    4
 0.3453158589477163   13   13    5    5
 0.3471223526310725   13   13    6    6
 0.3721639988096869   13   13    7    7
 -0.0129828573089922   13   13    8    2
 0.3543267795139481   13   13    8    8
 -0.02512016887476709   13   13    9    1
 0.05552080807919833   13   13    9    3
 0.3474831964400657   13   13    9    9
 -0.07475018088684482   13   13   10    4
 0.3526688084552787   13   13   10   10
 -0.06915625882084944   13   13   11    5
 0.3276378610581763   13   13   11   11
 0.06922921662026547   13   13   12    6
 0.3260601646242819   13   13   12   12
 0.0746116484817033   13   13   13    7
 0.351430559072097   13   13   13   13
 0.0511995472336188   14    1    2    1
 0.01984684022494936   14    1    3    2
 0.04388422186411355   14    1    6    5
 0.04388422186411354   14    1    7    4
 0.01299809073146457   14    1    8    1
 0.04161717338318334   14    1    8    3
 0.0005261281803792578   14    1    9    2
 0.02985064358738854   14    1    9    8
 -0.03564370932263388   14    1   10    7
 -0.03564370932263391   14    1   11    6
 0.03430502786625566   14    1   12    5
 -0.03820387779257247   14    1   12   11
 0.03430502786625569   14    1   13    4
 -0.03820387779257248   14    1   13   10
 0.03148546833346251   14    1   14    1
 0.05828750288172418   14    2    1    1
 0.06092591270289797   14    2    2    2
 0.01694824356227487   14    2    3    1
 0.04926608699264075   14    2    3    3
 0.05086986465791914   14    2    4    4
 0.05086986465791914   14    2    5    5
 0.05211952928362735   14    2    6    6
 0.0521195292836273   14    2    7    7
 0.01465872071528238   14    2    8    2
 0.05141851945890401   14    2    8    8
 -0.0007500446922618249   14    2    9    1
 0.02839165395107533   14    2    9    3
 0.04044887315867547   14    2    9    9
 -0.03747662086901825   14    2   10    4
 0.04581136145521964   14    2   10   10
 -0.03747662086901825   14    2   11    5
 0.04581136145521963   14    2   11   11
 0.03743288171101219   14    2   12    6
 0.0447223283020497   14    2   12   12
 0.03743288171101219   14    2   13    7
 0.04472232830204973   14    2   13   13
 0.03582981744186171   14    2   14    2
 0.05994103311526215   14    3    2    1
 0.01032258364844062   14    3    3    2
 0.05015574480205692   14    3    6    5
 0.0501557448020569   14    3    7    4
 0.001531437286818735   14    3    8    1
 0.05468934081124478   14    3    8    3
 -0.003700445736392257   14    3    9    2
 0.04294268809138643   14    3    9    8
 -0.0386541193557524   14    3   10    7
 -0.03865411935575242   14    3   11    6
 0.03730737696687698   14    3   12    5
 -0.04398531242489686   14    3   12   11
 0.03730737696687701   14    3   13    4
 -0.04398531242489689   14    3   13   10
 0.03335058756956018   14    3   14    1
 0.04341551331466188   14    3   14    3
 0.007005436782820105   14    4    4    2
 0.006897675584001951   14    4    7    1
 0.003324868028950832   14    4    7    3
 0.00233197665075645   14    4    8    4
 -0.0006994659327678772   14    4    9    7
 -0.01284707897837037   14    4   10    2
 -0.004781788690840225   14    4   10    8
 0.01246414858162379   14    4   13    1
 0.005727952166981754   14    4   13    3
 0.0009135305167967663   14    4   13    9
 0.01299060303872416   14    4   14    4
 0.007005436782820104   14    5    5    2
 0.006897675584001961   14    5    6    1
 0.003324868028950836   14    5    6    3
 0.00233197665075645   14    5    8    5
 -0.0006994659327678756   14    5    9    6
 -0.01284707897837037   14    5   11    2
 -0.004781788690840226   14    5   11    8
 0.01246414858162379   14    5   12    1
 0.005727952166981753   14    5   12    3
 0.0009135305167967664   14    5   12    9
 0.01299060303872415   14    5   14    5
 0.00624894870983764   14    6    5    1
 0.003604604146986566   14    6    5    3
 0.00676589465894221   14    6    6    2
 0.002676665956357314   14    6    8    6
 -0.001170289303044969   14    6    9    5
 -0.01296553990991047   14    6   11    1
 -0.005522764218161529   14    6   11    3
 -0.00182079821436522   14    6   11    9
 0.0132646917260681   14    6   12    2
 0.004763778187066823   14    6   12    8
 0.01361457247128849   14    6   14    6
 0.006248948709837618   14    7    4    1
 0.00360460414698656   14    7    4    3
 0.00676589465894218   14    7    7    2
 0.002676665956357307   14    7    8    7
 -0.001170289303044969   14    7    9    4
 -0.01296553990991047   14    7   10    1