 &FCI NORB=  26,NELEC=10,MS2=0,
  ORBSYM=1,1,1,1,1,1,1,1,1,1,1,1,1,1,1,1,1,1,1,1,1,1,1,1,1,1
  ISYM=1,
 &END
 0.5958955129661243    1    1    1    1
 0.1337143288786274    2    1    2    1
 0.4895365137110367    2    2    1    1
 0.5050742710072359    2    2    2    2
 -0.09235526138653512    3    1    1    1
 0.00622216933750956    3    1    2    2
 0.0810755304389383    3    1    3    1
 0.113048097996258    3    2    2    1
 0.1463680545250625    3    2    3    2
 0.5143911398794599    3    3    1    1
 0.5021716676696782    3    3    2    2
 -0.02061080681002267    3    3    3    1
 0.5270982226362045    3    3    3    3
 0.07847843925256007    4    1    4    1
 0.0522353229391528    4    2    4    2
 0.003249669825660626    4    3    4    1
 0.02035257626369405    4    3    4    3
 0.5116634847342042    4    4    1    1
 0.4614683658052978    4    4    2    2
 -0.04298895780315348    4    4    3    1
 0.4605729208985411    4    4    3    3
 0.4881100959485745    4    4    4    4
 0.07847843925256005    5    1    5    1
 0.0522353229391528    5    2    5    2
 0.003249669825660626    5    3    5    1
 0.02035257626369405    5    3    5    3
 0.0181827939821378    5    4    5    4
 0.5116634847342042    5    5    1    1
 0.4614683658052978    5    5    2    2
 -0.04298895780315349    5    5    3    1
 0.4605729208985411    5    5    3    3
 0.4517445079842988    5    5    4    4
 0.4881100959485745    5    5    5    5
 0.04941342348346346    6    1    5    2
 0.04877439441132736    6    1    6    1
 0.06869084558329332    6    2    5    1
 0.01988853356433045    6    2    5    3
 0.07494213643256638    6    2    6    2
 0.02600220340538276    6    3    5    2
 0.01969898792344725    6    3    6    1
 0.02527620762535999    6    3    6    3
 0.01529413414887294    6    4    6    4
 0.1435981099554499    6    5    2    1
 0.1160620164167814    6    5    3    2
 0.1754243151349144    6    5    6    5
 0.492214571729072    6    6    1    1
 0.4720760329060098    6    6    2    2
 -0.0196315331637371    6    6    3    1
 0.4644589628579994    6    6    3    3
 0.4441911643709821    6    6    4    4
 0.4789627262184627    6    6    5    5
 0.4823286602547886    6    6    6    6
 0.04941342348346343    7    1    4    2
 0.04877439441132732    7    1    7    1
 0.0686908455832933    7    2    4    1
 0.01988853356433044    7    2    4    3
 0.07494213643256634    7    2    7    2
 0.02600220340538276    7    3    4    2
 0.01969898792344724    7    3    7    1
 0.02527620762535998    7    3    7    3
 0.1435981099554499    7    4    2    1
 0.1160620164167813    7    4    3    2
 0.1448360468371685    7    4    6    5
 0.1754243151349143    7    4    7    4
 0.01529413414887293    7    5    6    4
 0.01529413414887293    7    5    7    5
 0.01738578092374031    7    6    5    4
 0.01854599341610821    7    6    7    6
 0.4922145717290717    7    7    1    1
 0.4720760329060095    7    7    2    2
 -0.01963153316373705    7    7    3    1
 0.464458962857999    7    7    3    3
 0.4789627262184624    7    7    4    4
 0.4441911643709818    7    7    5    5
 0.4452366734225718    7    7    6    6
 0.4823286602547879    7    7    7    7
 -0.06476228873509506    8    1    2    1
 -0.005858001995523385    8    1    3    2
 -0.07228890108233738    8    1    6    5
 -0.07228890108233735    8    1    7    4
 0.08202928579156382    8    1    8    1
 -0.08112814247236293    8    2    1    1
 -0.01097463319326151    8    2    2    2
 0.05485810799959205    8    2    3    1
 -0.01132436550767897    8    2    3    3
 -0.05486060838731124    8    2    4    4
 -0.05486060838731123    8    2    5    5
 -0.03944243568864805    8    2    6    6
 -0.039442435688648    8    2    7    7
 0.05587298560837088    8    2    8    2
 0.112550362339433    8    3    2    1
 0.1053073393249831    8    3    3    2
 0.1135627626884617    8    3    6    5
 0.1135627626884616    8    3    7    4
 -0.05235608660131879    8    3    8    1
 0.1199004900070819    8    3    8    3
 -0.0205732237286951    8    4    4    2
 -0.0250135110828385    8    4    7    1
 0.003829876509923832    8    4    7    3
 0.02421415437465412    8    4    8    4
 -0.0205732237286951    8    5    5    2
 -0.02501351108283852    8    5    6    1
 0.003829876509923835    8    5    6    3
 0.02421415437465411    8    5    8    5
 -0.03450371380703568    8    6    5    1
 0.009535382695863161    8    6    5    3
 -0.02189155972553609    8    6    6    2
 0.02587008593738151    8    6    8    6
 -0.03450371380703565    8    7    4    1
 0.009535382695863162    8    7    4    3
 -0.02189155972553606    8    7    7    2
 0.02587008593738147    8    7    8    7
 0.5342526629025587    8    8    1    1
 0.4703775340809805    8    8    2    2
 -0.06044705286038769    8    8    3    1
 0.4956849894710598    8    8    3    3
 0.4660862118590925    8    8    4    4
 0.4660862118590925    8    8    5    5
 0.4585483005200198    8    8    6    6
 0.4585483005200195    8    8    7    7
 -0.04957689942746125    8    8    8    2
 0.5104896215585537    8    8    8    8
 -0.002921133455416439    9    1    2    1
 0.01879978765085324    9    1    3    2
 -0.004340129405436766    9    1    6    5
 -0.00434012940543675    9    1    7    4
 0.02413993485152674    9    1    8    1
 -0.008477011445259698    9    1    8    3
 0.01653744467660701    9    1    9    1
 0.04002379734500468    9    2    1    1
 0.07145660564709136    9    2    2    2
 0.02285322552044851    9    2    3    1
 0.06751610136432529    9    2    3    3
 0.04371792854345937    9    2    4    4
 0.04371792854345936    9    2    5    5
 0.05128102288239013    9    2    6    6
 0.05128102288239004    9    2    7    7
 0.0125678882017895    9    2    8    2
 0.0380260737622965    9    2    8    8
 0.04196942128465871    9    2    9    2
 0.07572329348555103    9    3    2    1
 0.06624771417129516    9    3    3    2
 0.07519776578088418    9    3    6    5
 0.07519776578088408    9    3    7    4
 -0.04222050704345913    9    3    8    1
 0.06881474726631742    9    3    8    3
 0.006184267912414043    9    3    9    1
 0.0834768296416365    9    3    9    3
 0.002571924584146704    9    4    4    2
 -1.335789647643917e-05    9    4    7    1
 0.006208577480191692    9    4    7    3
 0.004308177929747152    9    4    8    4
 0.007274546167360521    9    4    9    4
 0.002571924584146703    9    5    5    2
 -1.335789647643659e-05    9    5    6    1
 0.0062085774801917    9    5    6    3
 0.004308177929747153    9    5    8    5
 0.007274546167360522    9    5    9    5
 -0.002684893148722973    9    6    5    1
 0.0066631385112634    9    6    5    3
 0.002868733289574787    9    6    6    2
 0.003969948144254374    9    6    8    6
 0.01031360888189176    9    6    9    6
 -0.002684893148722991    9    7    4    1
 0.00666313851126338    9    7    4    3
 0.002868733289574749    9    7    7    2
 0.003969948144254353    9    7    8    7
 0.01031360888189176    9    7    9    7
 0.1313138756847478    9    8    1    1
 0.09458522788806328    9    8    2    2
 -0.03463806116845886    9    8    3    1
 0.107552302353479    9    8    3    3
 0.0980916103306122    9    8    4    4
 0.09809161033061223    9    8    5    5
 0.09226676478383303    9    8    6    6
 0.0922667647838329    9    8    7    7
 -0.03211989992045094    9    8    8    2
 0.11068106467002    9    8    8    8
 0.03189667360957207    9    8    9    2
 0.07549964554013465    9    8    9    8
 0.4039879774381254    9    9    1    1
 0.4237548896426369    9    9    2    2
 0.007097669035273893    9    9    3    1
 0.4381152800360135    9    9    3    3
 0.3783908905483724    9    9    4    4
 0.3783908905483724    9    9    5    5
 0.3896950634682015    9    9    6    6
 0.3896950634682012    9    9    7    7
 0.009230325792790681    9    9    8    2
 0.4143156876373454    9    9    8    8
 0.04979056586556584    9    9    9    2
 0.06211934532367423    9    9    9    8
 0.4051412657032326    9    9    9    9
 -0.01908094003314943   10    1    4    1
 -0.0031456662826905   10    1    4    3
 -0.0206825630763875   10    1    7    2
 0.01186061946849573   10    1    8    7
 -0.003706958086887863   10    1    9    7
 0.02010592790863931   10    1   10    1
 -0.0240321628548386   10    2    4    2
 -0.02312868144659427   10    2    7    1
 -0.01036438196508492   10    2    7    3
 0.0113776718414465   10    2    8    4
 -0.005838203393025487   10    2    9    4
 0.02131320836330902   10    2   10    2
 -0.004713096453509221   10    3    4    1
 -0.007784635740989445   10    3    4    3
 -0.009702687981195968   10    3    7    2
 -0.00218110581545851   10    3    8    7
 -0.008984186743635734   10    3    9    7
 0.00325622412282412   10    3   10    1
 0.009230155721434029   10    3   10    3
 -0.1031233185834252   10    4    1    1
 -0.09864339467558125   10    4    2    2
 0.007716394687569213   10    4    3    1
 -0.09751823905594839   10    4    3    3
 -0.08760596330387675   10    4    4    4
 -0.0822227531767396   10    4    5    5
 -0.08720351008434854   10    4    6    6
 -0.09596132972396321   10    4    7    7
 0.0172651246214965   10    4    8    2
 -0.09792083957058811   10    4    8    8
 -0.02928346406621667   10    4    9    2
 -0.04871615144921642   10    4    9    8
 -0.07423825914759653   10    4    9    9
 0.07213113171363775   10    4   10    4
 -0.002691605063568565   10    5    5    4
 -0.004378909819807409   10    5    7    6
 0.008481206487324153   10    5   10    5
 -0.005709998863589065   10    6    6    4
 -0.005709998863589056   10    6    7    5
 0.007859703963238833   10    6   10    6
 -0.07354445753597781   10    7    2    1
 -0.05228289959301564   10    7    3    2
 -0.07258184486409129   10    7    6    5
 -0.08400184259126936   10    7    7    4
 0.04727327264048649   10    7    8    1
 -0.05785436615483421   10    7    8    3
 -7.202094207095546e-05   10    7    9    1
 -0.06052311565780078   10    7    9    3
 0.07396973041734882   10    7   10    7
 0.01368265591415159   10    8    4    2
 0.01623037573495134   10    8    7    1
 -0.0002821857682737761   10    8    7    3
 -0.01315332659405221   10    8    8    4
 -0.00502957681811615   10    8    9    4
 -0.008335507879336131   10    8   10    2
 0.01291583022508569   10    8   10    8
 -0.01436446225264069   10    9    4    2
 -0.01004552480599763   10    9    7    1
 -0.01572480352880472   10    9    7    3
 -0.004372530878875904   10    9    8    4
 -0.004008659309556599   10    9    9    4
 0.005263759449903566   10    9   10    2
 0.001321546761226396   10    9   10    8
 0.01283311360103416   10    9   10    9
 0.4595316879594661   10   10    1    1
 0.4276389926362388   10   10    2    2
 -0.02872957951684512   10   10    3    1
 0.4252084274241509   10   10    3    3
 0.4450759128420864   10   10    4    4
 0.416014495348028   10   10    5    5
 0.4125911090205243   10   10    6    6
 0.4407937120499282   10   10    7    7
 -0.04245173682129161   10   10    8    2
 0.4275301264740246   10   10    8    8
 0.04388842908548939   10   10    9    2
 0.08785895735067849   10   10    9    8
 0.362979403835178   10   10    9    9
 -0.07944847116943386   10   10   10    4
 0.4271690254579704   10   10   10   10
 -0.01908094003314943   11    1    5    1
 -0.00314566628269051   11    1    5    3
 -0.02068256307638753   11    1    6    2
 0.01186061946849574   11    1    8    6
 -0.003706958086887867   11    1    9    6
 0.02010592790863931   11    1   11    1
 -0.02403216285483862   11    2    5    2
 -0.0231286814465943   11    2    6    1
 -0.01036438196508494   11    2    6    3
 0.0113776718414465   11    2    8    5
 -0.005838203393025497   11    2    9    5
 0.02131320836330904   11    2   11    2
 -0.004713096453509247   11    3    5    1
 -0.007784635740989453   11    3    5    3
 -0.009702687981196006   11    3    6    2
 -0.002181105815458509   11    3    8    6
 -0.008984186743635745   11    3    9    6
 0.003256224122824132   11    3   11    1
 0.00923015572143404   11    3   11    3
 -0.002691605063568567   11    4    5    4
 -0.004378909819807412   11    4    7    6
 0.008481206487324157   11    4   10    5
 0.008481206487324158   11    4   11    4
 -0.1031233185834252   11    5    1    1
 -0.09864339467558128   11    5    2    2
 0.007716394687569194   11    5    3    1
 -0.09751823905594839   11    5    3    3
 -0.0822227531767396   11    5    4    4
 -0.08760596330387677   11    5    5    5
 -0.09596132972396341   11    5    6    6
 -0.0872035100843484   11    5    7    7
 0.01726512462149646   11    5    8    2
 -0.09792083957058811   11    5    8    8
 -0.02928346406621667   11    5    9    2
 -0.04871615144921642   11    5    9    8
 -0.07423825914759659   11    5    9    9
 0.05516871873898947   11    5   10    4
 -0.07634103024204991   11    5   10   10
 0.0721311317136378   11    5   11    5
 -0.07354445753597803   11    6    2    1
 -0.05228289959301581   11    6    3    2
 -0.08400184259126967   11    6    6    5
 -0.07258184486409142   11    6    7    4
 0.04727327264048654   11    6    8    1
 -0.05785436615483437   11    6    8    3
 -7.20209420709133e-05   11    6    9    1
 -0.06052311565780088   11    6    9    3
 0.05825032249087123   11    6   10    7
 0.07396973041734904   11    6   11    6
 -0.005709998863589054   11    7    6    4
 -0.005709998863589047   11    7    7    5
 0.007859703963238828   11    7   10    6
 0.007859703963238825   11    7   11    7
 0.01368265591415157   11    8    5    2
 0.01623037573495135   11    8    6    1
 -0.0002821857682737908   11    8    6    3
 -0.0131533265940522   11    8    8    5
 -0.005029576818116148   11    8    9    5
 -0.008335507879336127   11    8   11    2
 0.01291583022508568   11    8   11    8
 -0.0143644622526407   11    9    5    2
 -0.01004552480599763   11    9    6    1
 -0.01572480352880474   11    9    6    3
 -0.004372530878875911   11    9    8    5
 -0.004008659309556604   11    9    9    5
 0.005263759449903585   11    9   11    2
 0.001321546761226404   11    9   11    8
 0.01283311360103417   11    9   11    9
 0.01453070874702916   11   10    5    4
 0.01410130151470203   11   10    7    6
 -0.001553720463691957   11   10   10    5
 -0.001553720463691958   11   10   11    4
 0.01571927551628672   11   10   11   10
 0.4595316879594663   11   11    1    1
 0.4276389926362388   11   11    2    2
 -0.02872957951684512   11   11    3    1
 0.4252084274241511   11   11    3    3
 0.4160144953480281   11   11    4    4
 0.4450759128420865   11   11    5    5
 0.4407937120499285   11   11    6    6
 0.4125911090205242   11   11    7    7
 -0.04245173682129167   11   11    8    2
 0.427530126474025   11   11    8    8
 0.04388842908548944   11   11    9    2
 0.08785895735067832   11   11    9    8
 0.3629794038351781   11   11    9    9
 -0.07634103024204993   11   11   10    4
 0.3957304744253967   11   11   10   10
 -0.07944847116943381   11   11   11    5
 0.4271690254579704   11   11   11   11
 0.02817787624855578   12    1    1    1
 0.04339442660177249   12    1    2    2
 0.01195506672526911   12    1    3    1
 0.03539963684209795   12    1    3    3
 0.03164559083287264   12    1    4    4
 0.03164559083287264   12    1    5    5
 0.03567240677505319   12    1    6    6
 0.03567240677505314   12    1    7    7
 0.0007244857888263241   12    1    8    2
 0.02469149169554037   12    1    8    8
 0.02231074396191578   12    1    9    2
 0.0174909966657093   12    1    9    8
 0.02690833171721726   12    1    9    9
 -0.02175048076185514   12    1   10    4
 0.03055035278390764   12    1   10   10
 -0.02175048076185514   12    1   11    5
 0.03055035278390764   12    1   11   11
 0.01474678609360125   12    1   12    1
 0.05086360376585909   12    2    2    1
 0.04879970023191487   12    2    3    2
 0.0514474212896763   12    2    6    5
 0.05144742128967624   12    2    7    4
 -0.02131389507069028   12    2    8    1
 0.03682321940571007   12    2    8    3
 0.01269176639491556   12    2    9    1
 0.05901084676908846   12    2    9    3
 -0.04681106478892025   12    2   10    7
 -0.04681106478892034   12    2   11    6
 0.04934916236507639   12    2   12    2
 0.09538107438281829   12    3    1    1
 0.09327212674940835   12    3    2    2
 -0.006053281134626165   12    3    3    1
 0.09815491207119117   12    3    3    3
 0.07882626812551471   12    3    4    4
 0.07882626812551473   12    3    5    5
 0.08020266824272418   12    3    6    6
 0.08020266824272404   12    3    7    7
 -0.0108790049390493   12    3    8    2
 0.08148834348591265   12    3    8    8
 0.04429537738825257   12    3    9    2
 0.06031076531038163   12    3    9    8
 0.0654533559410086   12    3    9    9
 -0.04679891647404117   12    3   10    4
 0.07423983776363718   12    3   10   10
 -0.04679891647404118   12    3   11    5
 0.07423983776363718   12    3   11   11
 0.0243692218702056   12    3   12    1
 0.06212393610877882   12    3   12    3
 0.00785351160498316   12    4    4    1
 0.004233542318679486   12    4    4    3
 0.01036566984013642   12    4    7    2
 -0.004065545409175151   12    4    8    7
 0.008667238115102281   12    4    9    7
 -0.01018083604027182   12    4   10    1
 -0.008004354809604831   12    4   10    3
 0.01070348488344231   12    4   12    4
 0.00785351160498316   12    5    5    1
 0.004233542318679485   12    5    5    3
 0.01036566984013644   12    5    6    2
 -0.004065545409175147   12    5    8    6
 0.008667238115102276   12    5    9    6
 -0.01018083604027182   12    5   11    1
 -0.008004354809604833   12    5   11    3
 0.01070348488344231   12    5   12    5
 0.01054821160125027   12    6    5    2
 0.009501101150886725   12    6    6    1
 0.004946755584496818   12    6    6    3
 -0.004857390296937236   12    6    8    5
 0.00814136916778958   12    6    9    5
 -0.01510653361322571   12    6   11    2
 0.0006455738511876966   12    6   11    8
 -0.00227205071442055   12    6   11    9
 0.01491679882027614   12    6   12    6
 0.01054821160125024   12    7    4    2
 0.009501101150886676   12    7    7    1
 0.004946755584496781   12    7    7    3
 -0.004857390296937231   12    7    8    4
 0.008141369167789578   12    7    9    4
 -0.0151065336132257   12    7   10    2
 0.0006455738511876901   12    7   10    8
 -0.002272050714420524   12    7   10    9
 0.01491679882027612   12    7   12    7
 -0.004450513493726571   12    8    2    1
 -0.01136323602050561   12    8    3    2
 -0.007450836665361125   12    8    6    5
 -0.007450836665361167   12    8    7    4
 -0.01005486312893417   12    8    8    1
 -0.006679919832865459   12    8    8    3
 0.004710705492816154   12    8    9    1
 0.03066517347812397   12    8    9    3
 -0.01285051068197259   12    8   10    7
 -0.0128505106819726   12    8   11    6
 0.02312712463312173   12    8   12    2
 0.03161713080254321   12    8   12    8
 0.1254095926462655   12    9    2    1
 0.1445151178299303   12    9    3    2
 0.1310358462772356   12    9    6    5
 0.1310358462772356   12    9    7    4
 -0.02737483475353773   12    9    8    1
 0.1290946111867737   12    9    8    3
 0.003520293835058765   12    9    9    1
 0.0629676525499568   12    9    9    3
 -0.0566702827076579   12    9   10    7
 -0.05667028270765812   12    9   11    6
 0.03922603620829631   12    9   12    2
 -0.02523544484421552   12    9   12    8
 0.179713888111392   12    9   12    9
 -0.02942621104404513   12   10    4    1
 -0.01440229536678603   12   10    4    3
 -0.03662769109313543   12   10    7    2
 0.004613430812540486   12   10    8    7
 -0.001771601192564864   12   10    9    7
 0.007705324979694585   12   10   10    1
 0.005991521238001693   12   10   10    3
 -0.003944648954011813   12   10   12    4
 0.02373882729109164   12   10   12   10
 -0.02942621104404515   12   11    5    1
 -0.01440229536678603   12   11    5    3
 -0.03662769109313545   12   11    6    2
 0.004613430812540502   12   11    8    6
 -0.001771601192564893   12   11    9    6
 0.007705324979694589   12   11   11    1
 0.005991521238001713   12   11   11    3
 -0.003944648954011819   12   11   12    5
 0.02373882729109165   12   11   12   11
 0.3793736433614365   12   12    1    1
 0.4116028670192919   12   12    2    2
 0.01959845375433179   12   12    3    1
 0.4163754810945609   12   12    3    3
 0.3662872880780396   12   12    4    4
 0.3662872880780396   12   12    5    5
 0.3797767047099768   12   12    6    6
 0.3797767047099766   12   12    7    7
 0.01497654234846126   12   12    8    2
 0.3875677911650968   12   12    8    8
 0.0458185366331357   12   12    9    2
 0.04587493724744848   12   12    9    8
 0.3872557925467626   12   12    9    9
 -0.06299648017061329   12   12   10    4
 0.3519433768588714   12   12   10   10
 -0.06299648017061328   12   12   11    5
 0.3519433768588714   12   12   11   11
 0.02551719839976047   12   12   12    1
 0.05343819052858365   12   12   12    3
 0.378100766935637   12   12   12   12
 0.01928820427783065   13    1    5    2
 0.02097246329599755   13    1    6    1
 0.002723426181798486   13    1    6    3
 -0.01539907432351655   13    1    8    5
 0.001449749544043925   13    1    9    5
 -0.01785282943084743   13    1   11    2
 0.01129713047267751   13    1   11    8
 -0.0002531935690751961   13    1   11    9
 0.01129258482459211   13    1   12    6
 0.01796092115827315   13    1   13    1
 0.01896388831052473   13    2    5    1
 0.002351588767457956   13    2    5    3
 0.01890281287582243   13    2    6    2
 -0.01165300401403166   13    2    8    6
 0.007721957489526418   13    2    9    6
 -0.01783322160064993   13    2   11    1
 -0.007422780142087238   13    2   11    3
 0.01324302381025283   13    2   12    5
 -0.006801906505092541   13    2   12   11
 0.01968151376919635   13    2   13    2
 0.0001086249816520176   13    3    5    2
 -0.002071059835802636   13    3    6    1
 0.003918334727630397   13    3    6    3
 0.004018168040256706   13    3    8    5
 0.008042281443227783   13    3    9    5
 -0.00646940431497205   13    3   11    2
 -0.005508990100988909   13    3   11    8
 -0.002862284805410911   13    3   11    9
 0.009781973216286091   13    3   12    6
 0.002192010241932392   13    3   13    1
 0.009461465118543275   13    3   13    3
 0.004311228340822277   13    4    6    4
 0.004311228340822268   13    4    7    5
 -0.007165539355996334   13    4   10    6
 -0.007165539355996332   13    4   11    7
 0.006796327751743288   13    4   13    4
 0.05745547136931849   13    5    2    1
 0.0339625324229093   13    5    3    2
 0.06498991333313718   13    5    6    5
 0.05636745665149254   13    5    7    4
 -0.04441905932145131   13    5    8    1
 0.04494804680986815   13    5    8    3
 -0.001894443513329792   13    5    9    1
 0.05143503395272645   13    5    9    3
 -0.05001712934557829   13    5   10    7
 -0.06434820805757109   13    5   11    6
 0.03974210303162105   13    5   12    2
 0.01402488210636235   13    5   12    8
 0.03846272086185093   13    5   12    9
 0.05780616215820863   13    5   13    5
 0.1199330521975236   13    6    1    1
 0.1010598011171086   13    6    2    2
 -0.01864476474533368   13    6    3    1
 0.1015213329862466   13    6    3    3
 0.09361361474429002   13    6    4    4
 0.1012315633809593   13    6    5    5
 0.1020559864465264   13    6    6    6
 0.09375491199906152   13    6    7    7
 -0.02666001323037912   13    6    8    2
 0.1066302342547406   13    6    8    8
 0.03031091180785355   13    6    9    2
 0.05656378672981692   13    6    9    8
 0.0720136929022402   13    6    9    9
 -0.05562432142298095   13    6   10    4
 0.08631650836251616   13    6   10   10
 -0.0709359507625943   13    6   11    5
 0.09211429176100859   13    6   11   11
 0.02298432411319017   13    6   12    1
 0.05203442581715149   13    6   12    3
 0.0590946989741787   13    6   12   12
 0.07659745211386906   13    6   13    6
 0.003808974318334619   13    7    5    4
 0.004150537223732285   13    7    7    6
 -0.00765581466980667   13    7   10    5
 -0.007655814669806671   13    7   11    4
 0.002898891699246188   13    7   11   10
 0.008212009275421248   13    7   13    7
 -0.02622208896612698   13    8    5    1
 0.001845315013176155   13    8    5    3
 -0.0219538177156917   13    8    6    2
 0.01451398727371159   13    8    8    6
 0.006616988706440403   13    8    9    6
 0.01176660486811004   13    8   11    1
 -0.004144374964553074   13    8   11    3
 -0.0002298728732474256   13    8   12    5
 0.009175068037389806   13    8   12   11
 -0.007287592296533508   13    8   13    2
 0.01698617689334378   13    8   13    8
 0.01182209305024418   13    9    5    1
 0.01442798883977627   13    9    5    3
 0.02130369115929132   13    9    6    2
 0.005824985623284464   13    9    8    6
 0.001367171971515549   13    9    9    6
 -6.943263156917143e-05   13    9   11    1
 -0.004802992346072002   13    9   11    3
 0.0002143715167926056   13    9   12    5
 -0.01804274697276403   13    9   12   11
 -0.0006765809156835638   13    9   13    2
 -0.002461567115215348   13    9   13    8
 0.01819088654978882   13    9   13    9
 -0.01112776690315216   13   10    6    4
 -0.01112776690315215   13   10    7    5
 0.004182496884094449   13   10   10    6
 0.004182496884094435   13   10   11    7
 -0.003020379233869387   13   10   13    4
 0.0111068790098247   13   10   13   10
 -0.1218661928516283   13   11    2    1
 -0.09993111981259123   13   11    3    2
 -0.148186043207947   13   11    6    5
 -0.1259305094016427   13   11    7    4
 0.06189523761464854   13   11    8    1
 -0.1013205287425373   13   11    8    3
 0.00522839714983105   13   11    9    1
 -0.0668593487420759   13   11    9    3
 0.06573724913759531   13   11   10    7
 0.07410224290578447   13   11   11    6
 -0.04447453849727722   13   11   12    2
 0.006495147626322093   13   11   12    8
 -0.1225373142212057   13   11   12    9
 -0.05725611872986666   13   11   13    5
 0.1396138823929643   13   11   13   11
 0.03046124933826429   13   12    5    2
 0.02628979077008529   13   12    6    1
 0.02185107106818794   13   12    6    3
 -0.003870043452474867   13   12    8    5
 0.000853762001132945   13   12    9    5
 -0.01002151618223666   13   12   11    2
 0.006234160663849635   13   12   11    8
 -0.01673711997740661   13   12   11    9
 0.0007750356599878383   13   12   12    6
 0.005501467790397363   13   12   13    1
 -0.001614046505073712   13   12   13    3
 0.02886501792894383   13   12   13   12
 0.4323282622699002   13   13    1    1
 0.4130531083998287   13   13    2    2
 -0.01915205512014041   13   13    3    1
 0.4105261415527373   13   13    3    3
 0.3948351153593028   13   13    4    4
 0.4202091083203783   13   13    5    5
 0.4231031486687831   13   13    6    6
 0.3959590706735145   13   13    7    7
 -0.03211198536743601   13   13    8    2
 0.4102999551639094   13   13    8    8
 0.03804211328537188   13   13    9    2
 0.07477570857943283   13   13    9    8
 0.3589378100508993   13   13    9    9
 -0.0717605074193228   13   13   10    4
 0.3764564938417554   13   13   10   10
 -0.07575020159951697   13   13   11    5
 0.4036225273851467   13   13   11   11
 0.02624672258508713   13   13   12    1
 0.06313282079147206   13   13   12    3
 0.3500932525340992   13   13   12   12
 0.08000254601821546   13   13   13    6
 0.3919636785588581   13   13   13   13
 0.0192882042778307   14    1    4    2
 0.02097246329599758   14    1    7    1
 0.002723426181798512   14    1    7    3
 -0.01539907432351657   14    1    8    4
 0.001449749544043924   14    1    9    4
 -0.01785282943084746   14    1   10    2
 0.01129713047267753   14    1   10    8
 -0.000253193569075211   14    1   10    9
 0.01129258482459211   14    1   12    7
 0.01796092115827319   14    1   14    1
 0.0189638883105248   14    2    4    1
 0.002351588767457995   14    2    4    3
 0.0189028128758225   14    2    7    2
 -0.01165300401403166   14    2    8    7
 0.00772195748952642   14    2    9    7
 -0.01783322160064996   14    2   10    1
 -0.007422780142087251   14    2   10    3
 0.01324302381025286   14    2   12    4
 -0.006801906505092586   14    2   12   10
 0.01968151376919641   14    2   14    2
 0.0001086249816520767   14    3    4    2
 -0.002071059835802591   14    3    7    1
 0.003918334727630433   14    3    7    3
 0.004018168040256703   14    3    8    4
 0.008042281443227795   14    3    9    4
 -0.006469404314972074   14    3   10    2
 -0.005508990100988905   14    3   10    8
 -0.002862284805410939   14    3   10    9
 0.009781973216286105   14    3   12    7
 0.002192010241932409   14    3   14    1
 0.009461465118543294   14    3   14    3
 0.05745547136931865   14    4    2    1
 0.03396253242290947   14    4    3    2
 0.05636745665149277   14    4    6    5
 0.06498991333313732   14    4    7    4
 -0.0444190593214514   14    4    8    1
 0.0449480468098683   14    4    8    3
 -0.001894443513329744   14    4    9    1
 0.05143503395272656   14    4    9    3
 -0.06434820805757106   14    4   10    7
 -0.05001712934557845   14    4   11    6
 0.03974210303162108   14    4   12    2
 0.01402488210636242   14    4   12    8
 0.03846272086185096   14    4   12    9
 0.04421350665472207   14    4   13    5
 -0.05121536026212787   14    4   13   11
 0.05780616215820875   14    4   14    4
 0.004311228340822293   14    5    6    4
 0.004311228340822284   14    5    7    5
 -0.007165539355996344   14    5   10    6
 -0.00716553935599634   14    5   11    7
 0.006796327751743293   14    5   13    4
 -0.003020379233869394   14    5   13   10
 0.006796327751743299   14    5   14    5
 0.003808974318334653   14    6    5    4
 0.004150537223732324   14    6    7    6
 -0.007655814669806682   14    6   10    5
 -0.007655814669806683   14    6   11    4
 0.00289889169924622   14    6   11   10
 0.008212009275421256   14    6   13    7
 0.008212009275421265   14    6   14    6