 &FCI NORB=  26,NELEC=10,MS2=0,
  ORBSYM=1,1,1,1,1,1,1,1,1,1,1,1,1,1,1,1,1,1,1,1,1,1,1,1,1,1
  ISYM=1,
 &END
 0.4935457121800622    1    1    1    1
 0.2009394871214604    2    1    2    1
 0.4715667652153334    2    2    1    1
 0.4796175854961975    2    2    2    2
 -0.04343724613545831    3    1    1    1
 0.005622585237046364    3    1    2    2
 0.08107478303079227    3    1    3    1
 0.08811323916635973    3    2    2    1
 0.09127101408807699    3    2    3    2
 0.4711648969789989    3    3    1    1
 0.4637802273871177    3    3    2    2
 -0.01804938640750735    3    3    3    1
 0.481046781101049    3    3    3    3
 0.07006188892977142    4    1    4    1
 0.0593054775654938    4    2    4    2
 0.001041581855532723    4    3    4    1
 0.0191602344256734    4    3    4    3
 0.4543343177046198    4    4    1    1
 0.4433286495681021    4    4    2    2
 -0.02436317297485098    4    4    3    1
 0.4284717151874619    4    4    3    3
 0.4477418510702183    4    4    4    4
 0.07006188892977142    5    1    5    1
 0.05930547756549381    5    2    5    2
 0.001041581855532724    5    3    5    1
 0.0191602344256734    5    3    5    3
 0.01647879337084562    5    4    5    4
 0.4543343177046197    5    5    1    1
 0.4433286495681021    5    5    2    2
 -0.02436317297485098    5    5    3    1
 0.4284717151874619    5    5    3    3
 0.4147842643285272    5    5    4    4
 0.4477418510702183    5    5    5    5
 0.05875276834844118    6    1    5    2
 0.0586812600785106    6    1    6    1
 0.06978938266347763    6    2    5    1
 0.009782003233376463    6    2    5    3
 0.0738170333104728    6    2    6    2
 0.01571723688186221    6    3    5    2
 0.0129884070492153    6    3    6    1
 0.01848931447499917    6    3    6    3
 0.01594258193510633    6    4    6    4
 0.1902923093135972    6    5    2    1
 0.07909083533077847    6    5    3    2
 0.2032842903063293    6    5    6    5
 0.4566221119895556    6    6    1    1
 0.4542027174679089    6    6    2    2
 -0.01117808082636399    6    6    3    1
 0.4331487169957581    6    6    3    3
 0.4184310795926866    6    6    4    4
 0.4522422702068041    6    6    5    5
 0.4611683223883748    6    6    6    6
 0.05875276834844123    7    1    4    2
 0.0586812600785107    7    1    7    1
 0.06978938266347769    7    2    4    1
 0.009782003233376474    7    2    4    3
 0.0738170333104729    7    2    7    2
 0.01571723688186221    7    3    4    2
 0.0129884070492153    7    3    7    1
 0.01848931447499919    7    3    7    3
 0.1902923093135973    7    4    2    1
 0.07909083533077849    7    4    3    2
 0.1713991264361167    7    4    6    5
 0.2032842903063296    7    4    7    4
 0.01594258193510634    7    5    6    4
 0.01594258193510635    7    5    7    5
 0.01690559530705877    7    6    5    4
 0.01797617194471988    7    6    7    6
 0.456622111989556    7    7    1    1
 0.4542027174679094    7    7    2    2
 -0.01117808082636402    7    7    3    1
 0.4331487169957585    7    7    3    3
 0.4522422702068045    7    7    4    4
 0.418431079592687    7    7    5    5
 0.4252159784989356    7    7    6    6
 0.4611683223883758    7    7    7    7
 -0.04040364148663542    8    1    2    1
 0.03886720791277676    8    1    3    2
 -0.04156044409581449    8    1    6    5
 -0.04156044409581454    8    1    7    4
 0.069631838631127    8    1    8    1
 -0.05247482271441783    8    2    1    1
 -0.0115713896779661    8    2    2    2
 0.06966017097950968    8    2    3    1
 -0.01703022713516535    8    2    3    3
 -0.03928457770873128    8    2    4    4
 -0.03928457770873127    8    2    5    5
 -0.03026690698586999    8    2    6    6
 -0.03026690698587007    8    2    7    7
 0.06961529170301289    8    2    8    2
 0.1781534360331579    8    3    2    1
 0.08105269208624497    8    3    3    2
 0.1600739095492604    8    3    6    5
 0.1600739095492606    8    3    7    4
 -0.03590934051558396    8    3    8    1
 0.1808467748115304    8    3    8    3
 -0.01282848015950178    8    4    4    2
 -0.01551349140286476    8    4    7    1
 0.01216705299416796    8    4    7    3
 0.01975557893141332    8    4    8    4
 -0.01282848015950178    8    5    5    2
 -0.01551349140286474    8    5    6    1
 0.01216705299416796    8    5    6    3
 0.01975557893141332    8    5    8    5
 -0.0192181112527152    8    6    5    1
 0.01557741669353364    8    6    5    3
 -0.01277871646213816    8    6    6    2
 0.02121319032610891    8    6    8    6
 -0.01921811125271523    8    7    4    1
 0.01557741669353364    8    7    4    3
 -0.0127787164621382    8    7    7    2
 0.02121319032610896    8    7    8    7
 0.4887657843870031    8    8    1    1
 0.4695002201718325    8    8    2    2
 -0.04067998393622982    8    8    3    1
 0.4842999555941205    8    8    3    3
 0.4415181216377673    8    8    4    4
 0.4415181216377673    8    8    5    5
 0.4451841432501805    8    8    6    6
 0.4451841432501809    8    8    7    7
 -0.04468182601264286    8    8    8    2
 0.5085006535855338    8    8    8    8
 -0.01858035980738495    9    1    4    1
 -0.0062975047738814    9    1    4    3
 -0.02289519933286664    9    1    7    2
 0.004699356165767252    9    1    8    7
 0.02158642975165531    9    1    9    1
 -0.02771562516250328    9    2    4    2
 -0.02741361289468321    9    2    7    1
 -0.007756473397608383    9    2    7    3
 0.006167369768484042    9    2    8    4
 0.02341521176281742    9    2    9    2
 -0.01218201002064888    9    3    4    1
 -0.004364149392981011    9    3    4    3
 -0.01302853464736894    9    3    7    2
 -0.00261030134404357    9    3    8    7
 0.002703261954376539    9    3    9    1
 0.01062957579273871    9    3    9    3
 -0.08935360623279455    9    4    1    1
 -0.09765617159232833    9    4    2    2
 -0.007845313573266319    9    4    3    1
 -0.08279790746599731    9    4    3    3
 -0.08277960048422134    9    4    4    4
 -0.07572832628342201    9    4    5    5
 -0.08328814485442378    9    4    6    6
 -0.09321300380007322    9    4    7    7
 0.006556509318211938    9    4    8    2
 -0.09231239763619571    9    4    8    8
 0.07097917266076333    9    4    9    4
 -0.003525637100399642    9    5    5    4
 -0.004962429472824556    9    5    7    6
 0.008272270351926573    9    5    9    5
 -0.005962118062080055    9    6    6    4
 -0.005962118062080072    9    6    7    5
 0.007884919932996335    9    6    9    6
 -0.09594301376916055    9    7    2    1
 -0.03687732912803921    9    7    3    2
 -0.08419963610392855    9    7    6    5
 -0.09612387222808888    9    7    7    4
 0.02606364096165512    9    7    8    1
 -0.08106654690556114    9    7    8    3
 0.0788474620977065    9    7    9    7
 0.006499925648032105    9    8    4    2
 0.007817451652448354    9    8    7    1
 -0.005047341734198332    9    8    7    3
 -0.008872928427815596    9    8    8    4
 -0.003679827002834474    9    8    9    2
 0.009189273157839798    9    8    9    8
 0.4228956040872596    9    9    1    1
 0.4152325736140369    9    9    2    2
 -0.01861283454397938    9    9    3    1
 0.4030861438932041    9    9    3    3
 0.4179828003147373    9    9    4    4
 0.391151064138195    9    9    5    5
 0.3949251868428616    9    9    6    6
 0.4219192055673547    9    9    7    7
 -0.03206395551233542    9    9    8    2
 0.414275613462953    9    9    8    8
 -0.07791784411107766    9    9    9    4
 0.4072431459423776    9    9    9    9
 -0.01858035980738495   10    1    5    1
 -0.006297504773881393   10    1    5    3
 -0.02289519933286659   10    1    6    2
 0.004699356165767245   10    1    8    6
 0.0215864297516553   10    1   10    1
 -0.02771562516250327   10    2    5    2
 -0.02741361289468316   10    2    6    1
 -0.007756473397608362   10    2    6    3
 0.006167369768484051   10    2    8    5
 0.02341521176281741   10    2   10    2
 -0.01218201002064886   10    3    5    1
 -0.004364149392981006   10    3    5    3
 -0.0130285346473689   10    3    6    2
 -0.00261030134404356   10    3    8    6
 0.00270326195437653   10    3   10    1
 0.0106295757927387   10    3   10    3
 -0.003525637100399641   10    4    5    4
 -0.004962429472824554   10    4    7    6
 0.008272270351926573   10    4    9    5
 0.008272270351926573   10    4   10    4
 -0.08935360623279451   10    5    1    1
 -0.09765617159232827   10    5    2    2
 -0.007845313573266299   10    5    3    1
 -0.08279790746599727   10    5    3    3
 -0.07572832628342195   10    5    4    4
 -0.08277960048422128   10    5    5    5
 -0.09321300380007284   10    5    6    6
 -0.08328814485442396   10    5    7    7
 0.006556509318211948   10    5    8    2
 -0.09231239763619567   10    5    8    8
 0.05443463195691015   10    5    9    4
 -0.07292372963634111   10    5    9    9
 0.07097917266076333   10    5   10    5
 -0.09594301376916019   10    6    2    1
 -0.03687732912803903   10    6    3    2
 -0.09612387222808834   10    6    6    5
 -0.0841996361039283   10    6    7    4
 0.02606364096165506   10    6    8    1
 -0.08106654690556082   10    6    8    3
 0.06307762223171363   10    6    9    7
 0.07884746209770616   10    6   10    6
 -0.005962118062080078   10    7    6    4
 -0.005962118062080094   10    7    7    5
 0.007884919932996344   10    7    9    6
 0.007884919932996353   10    7   10    7
 0.00649992564803212   10    8    5    2
 0.007817451652448359   10    8    6    1
 -0.005047341734198314   10    8    6    3
 -0.008872928427815601   10    8    8    5
 -0.003679827002834482   10    8   10    2
 0.009189273157839802   10    8   10    8
 0.0134158680882711   10    9    5    4
 0.01349700936224633   10    9    7    6
 -0.002497057237368281   10    9    9    5
 -0.002497057237368278   10    9   10    4
 0.01434826972989002   10    9   10    9
 0.4228956040872597   10   10    1    1
 0.4152325736140368   10   10    2    2
 -0.01861283454397939   10   10    3    1
 0.403086143893204   10   10    3    3
 0.3911510641381951   10   10    4    4
 0.4179828003147372   10   10    5    5
 0.4219192055673543   10   10    6    6
 0.394925186842862   10   10    7    7
 -0.03206395551233542   10   10    8    2
 0.4142756134629531   10   10    8    8
 -0.07292372963634111   10   10    9    4
 0.3785466064825974   10   10    9    9
 -0.07791784411107769   10   10   10    5
 0.4072431459423775   10   10   10   10
 0.02617503269944952   11    1    2    1
 0.02702764384231859   11    1    3    2
 0.02324236436813343   11    1    6    5
 0.02324236436813346   11    1    7    4
 0.01142119267115338   11    1    8    1
 0.01740892638492318   11    1    8    3
 -0.02180848940463675   11    1    9    7
 -0.0218084894046367   11    1   10    6
 0.01957807664883403   11    1   11    1
 0.04989192841170546   11    2    1    1
 0.06401220398003815   11    2    2    2
 0.02132371174155492   11    2    3    1
 0.05419756785246731   11    2    3    3
 0.04707513770052941   11    2    4    4
 0.04707513770052942   11    2    5    5
 0.05227671526605974   11    2    6    6
 0.05227671526605986   11    2    7    7
 0.01390426303480792   11    2    8    2
 0.04561230159360753   11    2    8    8
 -0.03310082957038591   11    2    9    4
 0.04724597900147497   11    2    9    9
 -0.03310082957038592   11    2   10    5
 0.04724597900147494   11    2   10   10
 0.03706705575891688   11    2   11    2
 0.07198286858361372   11    3    2    1
 0.03028329457824846   11    3    3    2
 0.06252792265049469   11    3    6    5
 0.06252792265049475   11    3    7    4
 -0.01878304391490056   11    3    8    1
 0.06772606447719709   11    3    8    3
 -0.05262189128374557   11    3    9    7
 -0.05262189128374547   11    3   10    6
 0.02494160610289674   11    3   11    1
 0.06182918738853773   11    3   11    3
 0.006972820626944134   11    4    4    2
 0.006195906227969036   11    4    7    1
 0.005106442119708678   11    4    7    3
 0.001620671974219033   11    4    8    4
 -0.01002552335282415   11    4    9    2
 -0.00414204906352724   11    4    9    8
 0.008959764898798269   11    4   11    4
 0.006972820626944137   11    5    5    2
 0.00619590622796902   11    5    6    1
 0.005106442119708661   11    5    6    3
 0.001620671974219033   11    5    8    5
 -0.01002552335282415   11    5   10    2
 -0.004142049063527238   11    5   10    8
 0.00895976489879827   11    5   11    5
 0.005327053083968104   11    6    5    1
 0.005234293207970767   11    6    5    3
 0.007754954419280056   11    6    6    2
 0.001926300549725185   11    6    8    6
 -0.009359434542381322   11    6   10    1
 -0.00792666459794179   11    6   10    3
 0.01111746610015886   11    6   11    6
 0.005327053083968155   11    7    4    1
 0.005234293207970795   11    7    4    3
 0.007754954419280142   11    7    7    2
 0.001926300549725209   11    7    8    7
 -0.009359434542381334   11    7    9    1
 -0.007926664597941811   11    7    9    3
 0.01111746610015887   11    7   11    7
 0.08908171435090266   11    8    1    1
 0.08329948734090657   11    8    2    2
 -0.01382077805361015   11    8    3    1
 0.08697485540468752   11    8    3    3
 0.07283485276555861   11    8    4    4
 0.07283485276555862   11    8    5    5
 0.07436992319738817   11    8    6    6
 0.07436992319738835   11    8    7    7
 -0.01766152493586113   11    8    8    2
 0.09369107684673887   11    8    8    8
 -0.04071031369257044   11    8    9    4
 0.07078974964060147   11    8    9    9
 -0.04071031369257048   11    8   10    5
 0.07078974964060161   11    8   10   10
 0.03344892245243777   11    8   11    2
 0.05619237894165188   11    8   11    8
 -0.02260961863478982   11    9    4    2
 -0.02081560350145335   11    9    7    1
 -0.01445872843907875   11    9    7    3
 -0.004501392448796653   11    9    8    4
 0.01030845625434009   11    9    9    2
 0.001656073450878605   11    9    9    8
 -0.004149323610339898   11    9   11    4
 0.01703830941463967   11    9   11    9
 -0.02260961863478982   11   10    5    2
 -0.02081560350145333   11   10    6    1
 -0.01445872843907875   11   10    6    3
 -0.004501392448796655   11   10    8    5
 0.01030845625434008   11   10   10    2
 0.001656073450878599   11   10   10    8
 -0.004149323610339892   11   10   11    5
 0.01703830941463965   11   10   11   10
 0.3702509059377276   11   11    1    1
 0.3929512617478594   11   11    2    2
 0.03211080954468481   11   11    3    1
 0.3917745390009271   11   11    3    3
 0.3519563727305281   11   11    4    4
 0.3519563727305281   11   11    5    5
 0.3640467178740581   11   11    6    6
 0.3640467178740583   11   11    7    7
 0.02473396950643907   11   11    8    2
 0.3889471366657257   11   11    8    8
 -0.06792673050881812   11   11    9    4
 0.3413329912894374   11   11    9    9
 -0.06792673050881805   11   11   10    5
 0.3413329912894373   11   11   10   10
 0.04421804829838121   11   11   11    2
 0.04766254992188828   11   11   11    8
 0.3788948036075115   11   11   11   11
 -0.06057316797943652   12    1    1    1
 -0.06863305843626719   12    1    2    2
 -0.009631854070223284   12    1    3    1
 -0.05835729313002898   12    1    3    3
 -0.05352498571582257   12    1    4    4
 -0.05352498571582255   12    1    5    5
 -0.05912558750599899   12    1    6    6
 -0.05912558750599919   12    1    7    7
 -1.427854869038813e-05   12    1    8    2
 -0.06072679866574704   12    1    8    8
 0.0414104313007392   12    1    9    4
 -0.05248329078734733   12    1    9    9
 0.04141043130073918   12    1   10    5
 -0.05248329078734728   12    1   10   10
 -0.03048679800782753   12    1   11    2
 -0.03409341110394652   12    1   11    8
 -0.04601934676455597   12    1   11   11
 0.03207693275215334   12    1   12    1
 -0.06865677939659852   12    2    2    1
 -0.03338587358514599   12    2    3    2
 -0.0612126463050863   12    2    6    5
 -0.06121264630508639   12    2    7    4
 0.01173777387670737   12    2    8    1
 -0.05780260745659539   12    2    8    3
 0.05328076354319428   12    2    9    7
 0.05328076354319416   12    2   10    6
 -0.02557213602401525   12    2   11    1
 -0.05165781439412732   12    2   11    3
 0.04934365512305625   12    2   12    2
 -0.06055203866079479   12    3    1    1
 -0.06446293119149801   12    3    2    2
 -0.004641623937210069   12    3    3    1
 -0.06308207302245857   12    3    3    3
 -0.05281655449895426   12    3    4    4
 -0.05281655449895426   12    3    5    5
 -0.05477827255618931   12    3    6    6
 -0.05477827255618946   12    3    7    7
 -0.001451106607297297   12    3    8    2
 -0.05718508865010952   12    3    8    8
 0.03013090454386711   12    3    9    4
 -0.05275569586043737   12    3    9    9
 0.0301309045438671   12    3   10    5
 -0.05275569586043734   12    3   10   10
 -0.03500638435983456   12    3   11    2
 -0.04043021357312918   12    3   11    8
 -0.03961896930412857   12    3   11   11
 0.02890125089638831   12    3   12    1
 0.03767229381697675   12    3   12    3
 -0.004909931138153607   12    4    4    1
 -0.00402824746807237   12    4    4    3
 -0.007733300823265055   12    4    7    2
 0.001302110168548713   12    4    8    7
 0.01595221245587795   12    4    9    1
 0.004473334039048872   12    4    9    3
 -0.0113937430992989   12    4   11    7
 0.01612042199809209   12    4   12    4
 -0.004909931138153608   12    5    5    1
 -0.004028247468072369   12    5    5    3
 -0.007733300823265022   12    5    6    2
 0.001302110168548713   12    5    8    6
 0.01595221245587795   12    5   10    1
 0.00447333403904887   12    5   10    3
 -0.0113937430992989   12    5   11    6
 0.01612042199809209   12    5   12    5
 -0.01150419815170631   12    6    5    2
 -0.01134557415318561   12    6    6    1
 -0.00309183425020756   12    6    6    3
 0.003157766767566637   12    6    8    5
 0.01739489919375427   12    6   10    2
 8.638480985315024e-05   12    6   10    8
 -0.0108427652671278   12    6   11    5
 0.003686131498559393   12    6   11   10
 0.01713687777315584   12    6   12    6
 -0.0115041981517064   12    7    4    2
 -0.01134557415318573   12    7    7    1
 -0.003091834250207609   12    7    7    3
 0.003157766767566642   12    7    8    4
 0.0173948991937543   12    7    9    2
 8.638480985314457e-05   12    7    9    8
 -0.0108427652671278   12    7   11    4
 0.003686131498559446   12    7   11    9
 0.01713687777315585   12    7   12    7
 -0.0001828378542441711   12    8    2    1
 -0.005855519168979536   12    8    3    2
 0.002746760114095464   12    8    6    5
 0.002746760114095437   12    8    7    4
 -0.00492041303827195   12    8    8    1
 0.00101434318051174   12    8    8    3
 0.009478421930359568   12    8    9    7
 0.009478421930359554   12    8   10    6
 -0.01534497162617671   12    8   11    1
 -0.02577711669284556   12    8   11    3
 0.01963072152732941   12    8   12    2
 0.02212385026622805   12    8   12    8
 0.04394358740411408   12    9    4    1
 0.008122753863170039   12    9    4    3
 0.04669549859957552   12    9    7    2
 -0.004570361256488661   12    9    8    7
 -0.0108981147899888   12    9    9    1
 -0.009955273818354081   12    9    9    3
 0.003657569178196106   12    9   11    7
 -0.001513288909208944   12    9   12    4
 0.03619191894426977   12    9   12    9
 0.04394358740411407   12   10    5    1
 0.008122753863170039   12   10    5    3
 0.0466954985995755   12   10    6    2
 -0.004570361256488649   12   10    8    6
 -0.01089811478998878   12   10   10    1
 -0.00995527381835406   12   10   10    3
 0.003657569178196049   12   10   11    6
 -0.001513288909208941   12   10   12    5
 0.03619191894426978   12   10   12   10
 -0.1510278356985366   12   11    2    1
 -0.1060322545095895   12   11    3    2
 -0.1407528191756118   12   11    6    5
 -0.1407528191756119   12   11    7    4
 -0.01166064157698474   12   11    8    1
 -0.146072979738391   12   11    8    3
 0.06098233387946805   12   11    9    7
 0.06098233387946775   12   11   10    6
 -0.02198356428966013   12   11   11    1
 -0.04055292105920644   12   11   11    3
 0.04270442564140827   12   11   12    2
 -0.008337147799255061   12   11   12    8
 0.1687978352914984   12   11   12   11
 0.3721825765233073   12   12    1    1
 0.3907330117436726   12   12    2    2
 0.02620984961306333   12   12    3    1
 0.3825041155792291   12   12    3    3
 0.3580740483989793   12   12    4    4
 0.3580740483989792   12   12    5    5
 0.3684387012827121   12   12    6    6
 0.3684387012827124   12   12    7    7
 0.01669531475928473   12   12    8    2
 0.3785962786979725   12   12    8    8
 -0.06173054721264524   12   12    9    4
 0.345273803793863   12   12    9    9
 -0.06173054721264518   12   12   10    5
 0.3452738037938632   12   12   10   10
 0.04233132022462935   12   12   11    2
 0.04433789492820078   12   12   11    8
 0.361704608391237   12   12   11   11
 -0.04248821218652723   12   12   12    1
 -0.0382665407826474   12   12   12    3
 0.3537630781898924   12   12   12   12
 0.01997300956307558   13    1    5    2
 0.02064226209496642   13    1    6    1
 0.0008522203346337683   13    1    6    3
 -0.009725712153463933   13    1    8    5
 -0.01939746877073481   13    1   10    2
 0.005644011069613647   13    1   10    8
 0.007329175336022149   13    1   11    5
 -0.004713719481307031   13    1   11   10
 -0.01530947661579515   13    1   12    6
 0.01818197008498186   13    1   13    1
 0.01925910590375849   13    2    5    1
 0.001021197686747773   13    2    5    3
 0.0206706088661879   13    2    6    2
 -0.008087919695686736   13    2    8    6
 -0.01920492794741641   13    2   10    1
 -0.005124112134890967   13    2   10    3
 0.01053778159923932   13    2   11    6
 -0.01607959754494593   13    2   12    5
 0.009953842325536545   13    2   12   10
 0.01992494299318651   13    2   13    2
 -0.001532772157012976   13    3    5    2
 -0.002518501260672541   13    3    6    1
 0.004212818133887114   13    3    6    3
 0.005097194871853839   13    3    8    5
 -0.003606291859419482   13    3   10    2
 -0.006547768014930105   13    3   10    8
 0.007223121182922644   13    3   11    5
 -0.002164421560197682   13    3   11   10
 -0.006611938450675807   13    3   12    6
 0.001511944478205778   13    3   13    1
 0.007610371952001273   13    3   13    3
 0.00384209290563236   13    4    6    4
 0.003842092905632374   13    4    7    5
 -0.007165942105759373   13    4    9    6
 -0.007165942105759378   13    4   10    7
 0.006982714414952034   13    4   13    4
 0.06882623345510187   13    5    2    1
 0.01807515619827803   13    5    3    2
 0.06747193846180026   13    5    6    5
 0.05978775265053559   13    5    7    4
 -0.02830972819306159   13    5    8    1
 0.05852659450519136   13    5    8    3
 -0.05196928803490908   13    5    9    7
 -0.06630117224642776   13    5   10    6
 0.0167977156398984   13    5   11    1
 0.04465373606836874   13    5   11    3
 -0.04476792964497935   13    5   12    2
 -0.009747158158045227   13    5   12    8
 -0.03520678291894284   13    5   12   11
 0.05935996281265573   13    5   13    5
 0.099742280330056   13    6    1    1
 0.09797397978273302   13    6    2    2
 -0.008326951839122557   13    6    3    1
 0.08883080818539424   13    6    3    3
 0.0826516728616913   13    6    4    4
 0.08967451256353165   13    6    5    5
 0.09550776655525806   13    6    6    6
 0.08705679563803487   13    6    7    7
 -0.01949956529882548   13    6    8    2
 0.1008760740900517   13    6    8    8
 -0.05288254826538794   13    6    9    4
 0.07996972802885434   13    6    9    9
 -0.0680217869168043   13    6   10    5
 0.08611877462834566   13    6   10   10
 0.03223915861997353   13    6   11    2
 0.04569221480088727   13    6   11    8
 0.06173883888221626   13    6   11   11
 -0.04088579871220238   13    6   12    1
 -0.03324591973856354   13    6   12    3
 0.05705749196606667   13    6   12   12
 0.07141930755919942   13    6   13    6
 0.003511419850920169   13    7    5    4
 0.00422548545861173   13    7    7    6
 -0.007569619325708145   13    7    9    5
 -0.007569619325708146   13    7   10    4
 0.003074523299745668   13    7   10    9
 0.007887886437348755   13    7   13    7
 -0.01640183527387398   13    8    5    1
 0.004355602319996069   13    8    5    3
 -0.01514192470280878   13    8    6    2
 0.01013170649360237   13    8    8    6
 0.006638035047422964   13    8   10    1
 -0.004685404327650245   13    8   10    3
 0.00472389610586371   13    8   11    6
 -0.0003314416154361506   13    8   12    5
 -0.008262576405620429   13    8   12   10
 -0.005220925106089454   13    8   13    2
 0.01212930056966341   13    8   13    8
 -0.0114164357635987   13    9    6    4
 -0.0114164357635987   13    9    7    5
 0.004332022734948552   13    9    9    6
 0.004332022734948575   13    9   10    7
 -0.002690197215156111   13    9   13    4
 0.01115234512337509   13    9   13    9
 -0.1569303813191926   13   10    2    1
 -0.06698063860639139   13   10    3    2
 -0.1671991750431981   13   10    6    5
 -0.1443663035160009   13   10    7    4
 0.03321311041600435   13   10    8    1
 -0.1352702598606169   13   10    8    3
 0.07393514915713201   13   10    9    7
 0.08259919462702882   13   10   10    6
 -0.01947456959806887   13   10   11    1
 -0.05459345730793667   13   10   11    3
 0.05307023494615577   13   10   12    2
 -0.00237224663343289   13   10   12    8
 0.1255318853498774   13   10   12   11
 -0.05840627036510607   13   10   13    5
 0.1518531080829471   13   10   13   10
 0.02301085310582252   13   11    5    1
 0.01241507919072038   13   11    5    3
 0.02778797384767418   13   11    6    2
 0.00560748066294077   13   11    8    6
 -0.005331082341693055   13   11   10    1
 -0.006401609778975698   13   11   10    3
 0.001521070906104629   13   11   11    6
 0.0008640797711332303   13   11   12    5
 0.02425738302414219   13   11   12   10
 0.002514966228720977   13   11   13    2
 -0.002991976700855142   13   11   13    8
 0.02162822525551615   13   11   13   11
 -0.03857373054822012   13   12    5    2
 -0.03730009861501398   13   12    6    1
 -0.01525222330375323   13   12    6    3
 0.002496099841036015   13   12    8    5
 0.01454430129713396   13   12   10    2
 -0.00359881734906458   13   12   10    8
 -0.00169923884641326   13   12   11    5
 0.02174206306784849   13   12   11   10
 0.002085108671800314   13   12   12    6
 -0.008187527029225835   13   12   13    1
 0.002188502567848449   13   12   13    3
 0.03459293992408621   13   12   13   12
 0.4007541252345738   13   13    1    1
 0.3981069410575004   13   13    2    2
 -0.01055958486924472   13   13    3    1
 0.3838388410986568   13   13    3    3
 0.3729981877161157   13   13    4    4
 0.3979768611168074   13   13    5    5
 0.4048725058277913   13   13    6    6
 0.3785885589881882   13   13    7    7
 -0.02519944555721759   13   13    8    2
 0.3960964505269315   13   13    8    8
 -0.06817235839788417   13   13    9    4
 0.3608113713258418   13   13    9    9
 -0.07272855454994245   13   13   10    5
 0.3868675370702011   13   13   10   10
 0.03968328124842519   13   13   11    2
 0.06041274106515855   13   13   11    8
 0.3361093823017716   13   13   11   11
 -0.0465328392132093   13   13   12    1
 -0.04248658784428212   13   13   12    3
 0.3387316838732903   13   13   12   12
 0.07504196804842071   13   13   13    6
 0.3756668139700076   13   13   13   13
 0.01997300956307548   14    1    4    2
 0.02064226209496635   14    1    7    1
 0.0008522203346337309   14    1    7    3
 -0.009725712153463923   14    1    8    4
 -0.01939746877073476   14    1    9    2
 0.005644011069613635   14    1    9    8
 0.007329175336022131   14    1   11    4
 -0.004713719481306993   14    1   11    9
 -0.01530947661579515   14    1   12    7
 0.0181819700849818   14    1   14    1
 0.01925910590375836   14    2    4    1
 0.001021197686747733   14    2    4    3
 0.0206706088661878   14    2    7    2
 -0.008087919695686743   14    2    8    7
 -0.01920492794741636   14    2    9    1
 -0.005124112134890943   14    2    9    3
 0.01053778159923931   14    2   11    7
 -0.01607959754494592   14    2   12    4
 0.009953842325536458   14    2   12    9
 0.01992494299318644   14    2   14    2
 -0.001532772157013044   14    3    4    2
 -0.0025185012606726   14    3    7    1
 0.004212818133887086   14    3    7    3
 0.005097194871853825   14    3    8    4
 -0.003606291859419453   14    3    9    2
 -0.006547768014930098   14    3    9    8
 0.007223121182922633   14    3   11    4
 -0.002164421560197647   14    3   11    9
 -0.006611938450675792   14    3   12    7
 0.001511944478205765   14    3   14    1
 0.007610371952001265   14    3   14    3
 0.06882623345510153   14    4    2    1
 0.01807515619827785   14    4    3    2
 0.0597877526505352   14    4    6    5
 0.06747193846180002   14    4    7    4
 -0.02830972819306157   14    4    8    1
 0.05852659450519107   14    4    8    3
 -0.06630117224642769   14    4    9    7
 -0.05196928803490882   14    4   10    6
 0.01679771563989836   14    4   11    1
 0.04465373606836865   14    4   11    3
 -0.04476792964497924   14    4   12    2
 -0.009747158158045267   14    4   12    8
 -0.03520678291894249   14    4   12   11
 0.04539453398275151   14    4   13    5
 -0.05302587593479353   14    4   13   10
 0.05935996281265546   14    4   14    4
 0.003842092905632332   14    5    6    4
 0.003842092905632347   14    5    7    5
 -0.007165942105759362   14    5    9    6
 -0.007165942105759369   14    5   10    7
 0.006982714414952029   14    5   13    4
 -0.002690197215156091   14    5   13    9
 0.006982714414952024   14    5   14    5
 0.003511419850920111   14    6    5    4
 0.004225485458611667   14    6    7    6
 -0.00756961932570813   14    6    9    5
 -0.00756961932570813   14    6   10    4
 0.003074523299745615   14    6   10    9
 0.007887886437348744   14    6   13    7