 &FCI NORB=  26,NELEC=10,MS2=0,
  ORBSYM=1,1,1,1,1,1,1,1,1,1,1,1,1,1,1,1,1,1,1,1,1,1,1,1,1,1
  ISYM=1,
 &END
 0.4566553375774608    1    1    1    1
 0.2355671818363261    2    1    2    1
 0.4542426926820881    2    2    1    1
 0.4588749203050434    2    2    2    2
 -0.01976553347078212    3    1    1    1
 0.002673119161565415    3    1    2    2
 0.07413323913619904    3    1    3    1
 0.05936394563045894    3    2    2    1
 0.06996463249996349    3    2    3    2
 0.437314304916982    3    3    1    1
 0.4344373995110248    3    3    2    2
 -0.01585010318208566    3    3    3    1
 0.4447992946720732    3    3    3    3
 0.06773531325167506    4    1    4    1
 0.06271008394038376    4    2    4    2
 0.001064177820144258    4    3    4    1
 0.01751475010079574    4    3    4    3
 0.4285643576123569    4    4    1    1
 0.4278216937425765    4    4    2    2
 -0.01361817032354576    4    4    3    1
 0.4020839387986747    4    4    3    3
 0.4274550645438038    4    4    4    4
 0.06773531325167507    5    1    5    1
 0.06271008394038376    5    2    5    2
 0.001064177820144258    5    3    5    1
 0.01751475010079574    5    3    5    3
 0.01617868816832261    5    4    5    4
 0.4285643576123568    5    5    1    1
 0.4278216937425764    5    5    2    2
 -0.01361817032354576    5    5    3    1
 0.4020839387986747    5    5    3    3
 0.3950976882071586    5    5    4    4
 0.4274550645438038    5    5    5    5
 0.06271945440521837    6    1    5    2
 0.06283971206896424    6    1    6    1
 0.06908239460849691    6    2    5    1
 0.005037604155617134    6    2    5    3
 0.07148148715200252    6    2    6    2
 0.008913831324645164    6    3    5    2
 0.007643560674476655    6    3    6    1
 0.01606197168450893    6    3    6    3
 0.01626038247071988    6    4    6    4
 0.2173147012378713    6    5    2    1
 0.05147991553153781    6    5    3    2
 0.2241724109690815    6    5    6    5
 0.4335363500390985    6    6    1    1
 0.4350447323825571    6    6    2    2
 -0.007264079449532677    6    6    3    1
 0.4052958657888651    6    6    3    3
 0.3995191553049497    6    6    4    4
 0.4329161219349819    6    6    5    5
 0.4396891588878303    6    6    6    6
 0.06271945440521834    7    1    4    2
 0.06283971206896422    7    1    7    1
 0.06908239460849691    7    2    4    1
 0.005037604155617135    7    2    4    3
 0.07148148715200252    7    2    7    2
 0.008913831324645165    7    3    4    2
 0.007643560674476656    7    3    7    1
 0.01606197168450893    7    3    7    3
 0.2173147012378713    7    4    2    1
 0.05147991553153781    7    4    3    2
 0.1916516460276417    7    4    6    5
 0.2241724109690814    7    4    7    4
 0.01626038247071988    7    5    6    4
 0.01626038247071988    7    5    7    5
 0.01669848331501615    7    6    5    4
 0.0173907619321141    7    6    7    6
 0.4335363500390986    7    7    1    1
 0.4350447323825572    7    7    2    2
 -0.007264079449532677    7    7    3    1
 0.4052958657888651    7    7    3    3
 0.4329161219349819    7    7    4    4
 0.3995191553049497    7    7    5    5
 0.4049076350236021    7    7    6    6
 0.4396891588878303    7    7    7    7
 -0.01869907344706826    8    1    2    1
 0.05473202815273234    8    1    3    2
 -0.02014336326718497    8    1    6    5
 -0.02014336326718497    8    1    7    4
 0.06589808347976749    8    1    8    1
 -0.03233068156992045    8    2    1    1
 -0.01198002913320936    8    2    2    2
 0.07067424240504995    8    2    3    1
 -0.01875773828807081    8    2    3    3
 -0.02741662457862818    8    2    4    4
 -0.02741662457862817    8    2    5    5
 -0.02269332888370881    8    2    6    6
 -0.02269332888370881    8    2    7    7
 0.07224809772866518    8    2    8    2
 0.2082389720507066    8    3    2    1
 0.05261911387436954    8    3    3    2
 0.1833596348434189    8    3    6    5
 0.1833596348434189    8    3    7    4
 -0.01757916864598311    8    3    8    1
 0.2062944341107611    8    3    8    3
 -0.007546629898240547    8    4    4    2
 -0.008914948623482726    8    4    7    1
 0.01480462939976482    8    4    7    3
 0.01801141099743844    8    4    8    4
 -0.007546629898240546    8    5    5    2
 -0.008914948623482724    8    5    6    1
 0.01480462939976482    8    5    6    3
 0.01801141099743844    8    5    8    5
 -0.01062294201993453    8    6    5    1
 0.01657383223321567    8    6    5    3
 -0.007469173312756218    8    6    6    2
 0.01902514087201499    8    6    8    6
 -0.01062294201993453    8    7    4    1
 0.01657383223321567    8    7    4    3
 -0.007469173312756215    8    7    7    2
 0.01902514087201499    8    7    8    7
 0.4528903551961488    8    8    1    1
 0.4489787152598042    8    8    2    2
 -0.02422587603055931    8    8    3    1
 0.4533041401239211    8    8    3    3
 0.4152947565507514    8    8    4    4
 0.4152947565507515    8    8    5    5
 0.4195563738135114    8    8    6    6
 0.4195563738135114    8    8    7    7
 -0.03233199120656369    8    8    8    2
 0.4733980572242728    8    8    8    8
 -0.02119549754198317    9    1    4    1
 -0.004400994638667095    9    1    4    3
 -0.02352008583891914    9    1    7    2
 0.00240036129700851    9    1    8    7
 0.02145557607313094    9    1    9    1
 -0.02641350463185163    9    2    4    2
 -0.02641352609307972    9    2    7    1
 -0.004252315311848159    9    2    7    3
 0.003341987219980815    9    2    8    4
 0.02212127534916415    9    2    9    2
 -0.008824743229028388    9    3    4    1
 -0.00285116843169395    9    3    4    3
 -0.008903739672609738    9    3    7    2
 -0.003355417360762268    9    3    8    7
 0.00142467820004189    9    3    9    1
 0.009748612842787545    9    3    9    3
 -0.09062418475926041    9    4    1    1
 -0.09577724072484171    9    4    2    2
 -0.007696158372033743    9    4    3    1
 -0.07569302040332078    9    4    3    3
 -0.08511456568935345    9    4    4    4
 -0.0767297208126755    9    4    5    5
 -0.08147282868991897    9    4    6    6
 -0.09131972503818189    9    4    7    7
 0.003597809978942052    9    4    8    2
 -0.08762825639136392    9    4    8    8
 0.0698528807471194    9    4    9    4
 -0.004192422438338989    9    5    5    4
 -0.004923448174131472    9    5    7    6
 0.007839128655346594    9    5    9    5
 -0.005459698691299363    9    6    6    4
 -0.005459698691299363    9    6    7    5
 0.007662701765211593    9    6    9    6
 -0.09742952825298981    9    7    2    1
 -0.02063856317162877    9    7    3    2
 -0.08328100531235308    9    7    6    5
 -0.09420040269495179    9    7    7    4
 0.01305413800040444    9    7    8    1
 -0.08142491682048626    9    7    8    3
 0.07485348947002454    9    7    9    7
 0.00369481838485489    9    8    4    2
 0.004253296482167618    9    8    7    1
 -0.005353456648773255    9    8    7    3
 -0.006944374602583393    9    8    8    4
 -0.001812113632933699    9    8    9    2
 0.008205192976668921    9    8    9    8
 0.3957285126467118    9    9    1    1
 0.3947044638995366    9    9    2    2
 -0.01278263648217609    9    9    3    1
 0.3760268083732006    9    9    3    3
 0.3944089008001812    9    9    4    4
 0.3692136962368726    9    9    5    5
 0.3728721865694097    9    9    6    6
 0.3984924019330485    9    9    7    7
 -0.02383358453142474    9    9    8    2
 0.3868354305470612    9    9    8    8
 -0.07654289145235645    9    9    9    4
 0.3805077141653984    9    9    9    9
 -0.02119549754198316   10    1    5    1
 -0.004400994638667096   10    1    5    3
 -0.02352008583891914   10    1    6    2
 0.002400361297008508   10    1    8    6
 0.02145557607313094   10    1   10    1
 -0.02641350463185164   10    2    5    2
 -0.02641352609307972   10    2    6    1
 -0.004252315311848159   10    2    6    3
 0.003341987219980814   10    2    8    5
 0.02212127534916416   10    2   10    2
 -0.008824743229028393   10    3    5    1
 -0.002851168431693951   10    3    5    3
 -0.008903739672609741   10    3    6    2
 -0.003355417360762268   10    3    8    6
 0.00142467820004189   10    3   10    1
 0.009748612842787547   10    3   10    3
 -0.004192422438338989   10    4    5    4
 -0.004923448174131472   10    4    7    6
 0.007839128655346594   10    4    9    5
 0.007839128655346594   10    4   10    4
 -0.0906241847592604   10    5    1    1
 -0.0957772407248417   10    5    2    2
 -0.007696158372033743   10    5    3    1
 -0.07569302040332077   10    5    3    3
 -0.07672972081267547   10    5    4    4
 -0.08511456568935345   10    5    5    5
 -0.09131972503818191   10    5    6    6
 -0.08147282868991892   10    5    7    7
 0.003597809978942048   10    5    8    2
 -0.08762825639136392   10    5    8    8
 0.05417462343642624   10    5    9    4
 -0.07083828958740435   10    5    9    9
 0.06985288074711944   10    5   10    5
 -0.09742952825298982   10    6    2    1
 -0.02063856317162877   10    6    3    2
 -0.09420040269495182   10    6    6    5
 -0.08328100531235308   10    6    7    4
 0.01305413800040443   10    6    8    1
 -0.08142491682048628   10    6    8    3
 0.05952808593960141   10    6    9    7
 0.07485348947002461   10    6   10    6
 -0.005459698691299362   10    7    6    4
 -0.005459698691299361   10    7    7    5
 0.007662701765211592   10    7    9    6
 0.007662701765211593   10    7   10    7
 0.003694818384854888   10    8    5    2
 0.004253296482167616   10    8    6    1
 -0.005353456648773256   10    8    6    3
 -0.006944374602583396   10    8    8    5
 -0.001812113632933698   10    8   10    2
 0.008205192976668923   10    8   10    8
 0.01259760228165425   10    9    5    4
 0.01281010768181937   10    9    7    6
 -0.002852300932476058   10    9    9    5
 -0.002852300932476059   10    9   10    4
 0.01307540464950222   10    9   10    9
 0.3957285126467118   10   10    1    1
 0.3947044638995366   10   10    2    2
 -0.01278263648217609   10   10    3    1
 0.3760268083732006   10   10    3    3
 0.3692136962368726   10   10    4    4
 0.3944089008001812   10   10    5    5
 0.3984924019330484   10   10    6    6
 0.3728721865694097   10   10    7    7
 -0.02383358453142474   10   10    8    2
 0.3868354305470612   10   10    8    8
 -0.0708382895874043   10   10    9    4
 0.3543569048663938   10   10    9    9
 -0.07654289145235645   10   10   10    5
 0.3805077141653982   10   10   10   10
 -0.05996993578637417   11    1    1    1
 -0.05996718480431806   11    1    2    2
 0.01010208875006978   11    1    3    1
 -0.04323468567467812   11    1    3    3
 -0.05211386949001484   11    1    4    4
 -0.05211386949001484   11    1    5    5
 -0.05568224379983534   11    1    6    6
 -0.05568224379983534   11    1    7    7
 0.02145863272646978   11    1    8    2
 -0.06195750328613352   11    1    8    8
 0.0427291367249799   11    1    9    4
 -0.04633808324152711   11    1    9    9
 0.04272913672497991   11    1   10    5
 -0.04633808324152712   11    1   10   10
 0.04316940348301625   11    1   11    1
 -0.06272215298558549   11    2    2    1
 0.007067762284656598   11    2    3    2
 -0.0574784993358024   11    2    6    5
 -0.0574784993358024   11    2    7    4
 0.03056171108405836   11    2    8    1
 -0.05344302357429638   11    2    8    3
 0.04191417277870167   11    2    9    7
 0.04191417277870167   11    2   10    6
 0.03709826880964062   11    2   11    2
 0.03470929968433469   11    3    1    1
 0.04084636640141912   11    3    2    2
 0.01108954626996105   11    3    3    1
 0.02792972706707166   11    3    3    3
 0.02822094339670134   11    3    4    4
 0.02822094339670135   11    3    5    5
 0.032943727230882   11    3    6    6
 0.03294372723088199   11    3    7    7
 0.001191874443125818   11    3    8    2
 0.04598511432856851   11    3    8    8
 -0.03102134556737326   11    3    9    4
 0.02417649553637053   11    3    9    9
 -0.03102134556737327   11    3   10    5
 0.02417649553637056   11    3   10   10
 -0.03424743465195978   11    3   11    1
 0.0409928751745764   11    3   11    3
 -0.007180735279883007   11    4    4    1
 0.0001298605676764166   11    4    4    3
 -0.0086437141142768   11    4    7    2
 0.005536338896289231   11    4    8    7
 0.01674367358495694   11    4    9    1
 -0.005645044473551861   11    4    9    3
 0.01863569956970314   11    4   11    4
 -0.007180735279883004   11    5    5    1
 0.0001298605676764174   11    5    5    3
 -0.008643714114276795   11    5    6    2
 0.00553633889628923   11    5    8    6
 0.01674367358495694   11    5   10    1
 -0.00564504447355186   11    5   10    3
 0.01863569956970313   11    5   11    5
 -0.01376526204777675   11    6    5    2
 -0.0142789820488396   11    6    6    1
 0.003294296628049938   11    6    6    3
 0.008009932592764724   11    6    8    5
 0.01494628574121671   11    6   10    2
 -0.006588773617386913   11    6   10    8
 0.01484443000232667   11    6   11    6
 -0.01376526204777674   11    7    4    2
 -0.0142789820488396   11    7    7    1
 0.003294296628049938   11    7    7    3
 0.008009932592764724   11    7    8    4
 0.01494628574121671   11    7    9    2
 -0.006588773617386913   11    7    9    8
 0.01484443000232668   11    7   11    7
 0.1015500901842937   11    8    2    1
 0.008325588423729617   11    8    3    2
 0.0899098962941265   11    8    6    5
 0.0899098962941265   11    8    7    4
 -0.02829950472247529   11    8    8    1
 0.09914573302567195   11    8    8    3
 -0.05206752423187584   11    8    9    7
 -0.05206752423187587   11    8   10    6
 -0.04440391696224076   11    8   11    2
 0.06821638022890063   11    8   11    8
 0.04425182326976911   11    9    4    1
 -0.008888851616166104   11    9    4    3
 0.04252085984018885   11    9    7    2
 -0.01468890544611955   11    9    8    7
 -0.008307414901911007   11    9    9    1
 -0.005882431150891125   11    9    9    3
 -0.0003486953583910795   11    9   11    4
 0.04087243545019442   11    9   11    9
 0.0442518232697691   11   10    5    1
 -0.008888851616166106   11   10    5    3
 0.04252085984018885   11   10    6    2
 -0.01468890544611955   11   10    8    6
 -0.008307414901911003   11   10   10    1
 -0.005882431150891127   11   10   10    3
 -0.0003486953583910727   11   10   11    5
 0.04087243545019442   11   10   11   10
 0.4345338198523441   11   11    1    1
 0.4150029023739337   11   11    2    2
 -0.07169103221171302   11   11    3    1
 0.425288277117113   11   11    3    3
 0.405890809938488   11   11    4    4
 0.405890809938488   11   11    5    5
 0.4039470876719232   11   11    6    6
 0.4039470876719231   11   11    7    7
 -0.07544960720541946   11   11    8    2
 0.4395174195160826   11   11    8    8
 -0.06780162138522895   11   11    9    4
 0.3866480894842035   11   11    9    9
 -0.06780162138522892   11   11   10    5
 0.3866480894842033   11   11   10   10
 -0.05131594011960344   11   11   11    1
 0.01436505745728747   11   11   11    3
 0.4737431690623988   11   11   11   11
 0.04194176573503886   12    1    2    1
 0.02438163933634264   12    1    3    2
 0.03630430407964953   12    1    6    5
 0.03630430407964953   12    1    7    4
 0.01115669793187408   12    1    8    1
 0.03211524821814503   12    1    8    3
 -0.03110886931749708   12    1    9    7
 -0.03110886931749708   12    1   10    6
 -0.01108534289262927   12    1   11    2
 0.01306447046184112   12    1   11    8
 0.02647104262357175   12    1   12    1
 0.05550287476335367   12    2    1    1
 0.06241430574735066   12    2    2    2
 0.01937880301993248   12    2    3    1
 0.05034384212493467   12    2    3    3
 0.04958501978314539   12    2    4    4
 0.04958501978314538   12    2    5    5
 0.05287989102062951   12    2    6    6
 0.05287989102062951   12    2    7    7
 0.01440666175194633   12    2    8    2
 0.0495380983317249   12    2    8    8
 -0.03579563927970233   12    2    9    4
 0.04685538586707472   12    2    9    9
 -0.03579563927970234   12    2   10    5
 0.04685538586707471   12    2   10   10
 -0.01510539957262185   12    2   11    1
 0.009957241118384561   12    2   11    3
 0.034164029646455   12    2   11   11
 0.03645369673887037   12    2   12    2
 0.06604306550401166   12    3    2    1
 0.01691989903999347   12    3    3    2
 0.05565669212023618   12    3    6    5
 0.05565669212023617   12    3    7    4
 -0.006300258497020735   12    3    8    1
 0.06095030339997502   12    3    8    3
 -0.04491218657893536   12    3    9    7
 -0.04491218657893536   12    3   10    6
 -0.02489823583357702   12    3   11    2
 0.03461245756484172   12    3   11    8
 0.03135580647649507   12    3   12    1
 0.05061974419354308   12    3   12    3
 0.007595060971687611   12    4    4    2
 0.007331502349265547   12    4    7    1
 0.004010859310860823   12    4    7    3
 0.001773207687568846   12    4    8    4
 -0.01179822738117305   12    4    9    2
 -0.004457714231606784   12    4    9    8
 -0.005528709054047758   12    4   11    7
 0.01116619140827294   12    4   12    4
 0.007595060971687611   12    5    5    2
 0.007331502349265546   12    5    6    1
 0.004010859310860824   12    5    6    3
 0.001773207687568847   12    5    8    5
 -0.01179822738117305   12    5   10    2
 -0.004457714231606784   12    5   10    8
 -0.005528709054047756   12    5   11    6
 0.01116619140827294   12    5   12    5
 0.006518517880881991   12    6    5    1
 0.004347785152743024   12    6    5    3
 0.007853749847673197   12    6    6    2
 0.00222410297663387   12    6    8    6
 -0.01178665667526245   12    6   10    1
 -0.006552946592837907   12    6   10    3
 -0.006371761379764105   12    6   11    5
 -0.0001702942442286195   12    6   11   10
 0.01254113490490902   12    6   12    6
 0.006518517880881989   12    7    4    1
 0.004347785152743023   12    7    4    3
 0.007853749847673196   12    7    7    2
 0.002224102976633868   12    7    8    7
 -0.01178665667526245   12    7    9    1
 -0.006552946592837905   12    7    9    3
 -0.006371761379764107   12    7   11    4
 -0.0001702942442286173   12    7   11    9
 0.01254113490490902   12    7   12    7
 0.07461477367176435   12    8    1    1
 0.07504828691356787   12    8    2    2
 -0.003482818930914819   12    8    3    1
 0.07271266358283326   12    8    3    3
 0.06290979233025279   12    8    4    4
 0.06290979233025278   12    8    5    5
 0.06479100468015704   12    8    6    6
 0.06479100468015703   12    8    7    7
 -0.007785232674607337   12    8    8    2
 0.07796916184683944   12    8    8    8
 -0.03819297218062357   12    8    9    4
 0.05994101658540307   12    8    9    9
 -0.03819297218062357   12    8   10    5
 0.05994101658540307   12    8   10   10
 -0.02397511340741774   12    8   11    1
 0.01670795332538714   12    8   11    3
 0.07008434269022208   12    8   11   11
 0.03466540042712597   12    8   12    2
 0.04790233120242354   12    8   12    8
 -0.02819398681326954   12    9    4    2
 -0.02744834035918371   12    9    7    1
 -0.0122940049586343   12    9    7    3
 -0.005692052950249443   12    9    8    4
 0.01074880642932402   12    9    9    2
 0.001631694028079719   12    9    9    8
 0.001741452202057912   12    9   11    7
 -0.003724666932411699   12    9   12    4
 0.02147393152325797   12    9   12    9
 -0.02819398681326954   12   10    5    2
 -0.02744834035918372   12   10    6    1
 -0.0122940049586343   12   10    6    3
 -0.005692052950249444   12   10    8    5
 0.01074880642932402   12   10   10    2
 0.00163169402807972   12   10   10    8
 0.001741452202057916   12   10   11    6
 -0.0037246669324117   12   10   12    5
 0.02147393152325797   12   10   12   10
 -0.004075217933202722   12   11    2    1
 -0.009481789004766209   12   11    3    2
 -0.007085370064898682   12   11    6    5
 -0.007085370064898676   12   11    7    4
 -0.009720271092916666   12   11    8    1
 0.002695231598972367   12   11    8    3
 -0.00475576160985477   12   11    9    7
 -0.004755761609854741   12   11   10    6
 -0.00621213987009411   12   11   11    2
 0.00826688292184268   12   11   11    8
 0.001252464977200088   12   11   12    1
 0.009020376298586655   12   11   12    3
 0.007339243739746641   12   11   12   11
 0.3616682066114456   12   12    1    1
 0.3761040814342644   12   12    2    2
 0.04057532063158153   12   12    3    1
 0.3654520188126845   12   12    3    3
 0.34329250827631   12   12    4    4
 0.3432925082763099   12   12    5    5
 0.3511724493399725   12   12    6    6
 0.3511724493399725   12   12    7    7
 0.03294416528147978   12   12    8    2
 0.3714272431368443   12   12    8    8
 -0.06636871130496176   12   12    9    4
 0.3281118004769275   12   12    9    9
 -0.06636871130496179   12   12   10    5
 0.3281118004769275   12   12   10   10
 -0.03313615091714692   12   12   11    1
 0.0371418155882314   12   12   11    3
 0.3150833106464678   12   12   11   11
 0.0468704484413899   12   12   12    2
 0.04536201627713674   12   12   12    8
 0.3679459380972931   12   12   12   12
 0.04430245747683484   13    1    1    1
 0.049897191535251   13    1    2    2
 0.01675767655964326   13    1    3    1
 0.04299832392374669   13    1    3    3
 0.03865738094197688   13    1    4    4
 0.03865738094197688   13    1    5    5
 0.04105416635488669   13    1    6    6
 0.04105416635488669   13    1    7    7
 0.01415990211624227   13    1    8    2
 0.04006844051403751   13    1    8    8
 -0.02815885936027428   13    1    9    4
 0.03731749510523584   13    1    9    9
 -0.02815885936027427   13    1   10    5
 0.03731749510523585   13    1   10   10
 -0.009269411649637333   13    1   11    1
 0.004762578563611738   13    1   11    3
 0.02809795511860138   13    1   11   11
 0.03051656738454512   13    1   12    2
 0.02808058226505293   13    1   12    8
 0.03907301871433027   13    1   12   12
 0.02627022887491598   13    1   13    1
 0.04769033083164296   13    2    2    1
 0.02787376624088093   13    2    3    2
 0.039787373441403   13    2    6    5
 0.039787373441403   13    2    7    4
 0.01263358058478578   13    2    8    1
 0.03958768812091992   13    2    8    3
 -0.03559668922954404   13    2    9    7
 -0.03559668922954404   13    2   10    6
 -0.01267417174225154   13    2   11    2
 0.01630030726198283   13    2   11    8
 0.03028738330374678   13    2   12    1
 0.03729311048413943   13    2   12    3
 0.002607767696545545   13    2   12   11
 0.03515210064475496   13    2   13    2
 0.07438355404796498   13    3    1    1
 0.0796184529029083   13    3    2    2
 0.01105217833646741   13    3    3    1
 0.07060473355260781   13    3    3    3
 0.06362603282051198   13    3    4    4
 0.063626032820512   13    3    5    5
 0.06722159088102587   13    3    6    6
 0.06722159088102585   13    3    7    7
 0.004412519462929173   13    3    8    2
 0.0768653631278743   13    3    8    8
 -0.04388884603256064   13    3    9    4
 0.06009818626880606   13    3    9    9
 -0.04388884603256064   13    3   10    5
 0.06009818626880607   13    3   10   10
 -0.02669718043127073   13    3   11    1
 0.02305059532036449   13    3   11    3
 0.05664349760522531   13    3   11   11
 0.03955828852658787   13    3   12    2
 0.04803130135328119   13    3   12    8
 0.05616148284725971   13    3   12   12
 0.03177776889752483   13    3   13    1
 0.05200599479766434   13    3   13    3
 0.003100064865722845   13    4    4    1
 0.003717714060761545   13    4    4    3
 0.004094329823949901   13    4    7    2
 0.002703587823995737   13    4    8    7
 -0.009914436563489176   13    4    9    1
 -0.006539795514374632   13    4    9    3
 -0.005009605570895807   13    4   11    4
 -0.001418010716777468   13    4   11    9
 0.01173805719639098   13    4   12    7
 0.01138964786457282   13    4   13    4
 0.003100064865722845   13    5    5    1
 0.003717714060761544   13    5    5    3
 0.004094329823949902   13    5    6    2
 0.002703587823995737   13    5    8    6
 -0.009914436563489174   13    5   10    1
 -0.006539795514374632   13    5   10    3
 -0.005009605570895808   13    5   11    5
 -0.001418010716777468   13    5   11   10
 0.01173805719639098   13    5   12    6
 0.01138964786457282   13    5   13    5
 0.004676555127875527   13    6    5    2
 0.004365289508070433   13    6    6    1
 0.00421301238620818   13    6    6    3
 0.002776720482705243   13    6    8    5
 -0.01136219571515494   13    6   10    2
 -0.005043321893257461   13    6   10    8
 -0.00515521581455624   13    6   11    6
 0.01159106129593009   13    6   12    5
 -0.002777918344526635   13    6   12   10
 0.01232562790817082   13    6   13    6
 0.004676555127875525   13    7    4    2
 0.004365289508070433   13    7    7    1
 0.00421301238620818   13    7    7    3
 0.002776720482705241   13    7    8    4
 -0.01136219571515494   13    7    9    2
 -0.00504332189325746   13    7    9    8
 -0.005155215814556243   13    7   11    7
 0.01159106129593009   13    7   12    4
 -0.002777918344526629   13    7   12    9
 0.01232562790817082   13    7   13    7
 0.06261771288288978   13    8    2    1
 0.01473630623211127   13    8    3    2
 0.05249248983382734   13    8    6    5
 0.05249248983382732   13    8    7    4
 -0.007514242522944686   13    8    8    1
 0.05905864538591667   13    8    8    3
 -0.04208374570092136   13    8    9    7
 -0.04208374570092138   13    8   10    6
 -0.02436942568085849   13    8   11    2
 0.03509824514397871   13    8   11    8
 0.02873812156312101   13    8   12    1
 0.04839832169846963   13    8   12    3
 0.009602661031381387   13    8   12   11
 0.03436060952833554   13    8   13    2
 0.0467685712379346   13    8   13    8
 -0.02696748265847195   13    9    4    1
 -0.0113707682243811   13    9    4    3
 -0.02978381144490487   13    9    7    2
 -0.006724541740791659   13    9    8    7
 0.008652945687363973   13    9    9    1
 0.005365982700325858   13    9    9    3
 0.0001368090743397228   13    9   11    4
 -0.01330020157969073   13    9   11    9
 -0.003443179258608401   13    9   12    7
 -0.001811825713369658   13    9   13    4
 0.02208028283393119   13    9   13    9
 -0.02696748265847194   13   10    5    1
 -0.0113707682243811   13   10    5    3
 -0.02978381144490487   13   10    6    2
 -0.006724541740791658   13   10    8    6
 0.008652945687363975   13   10   10    1
 0.005365982700325862   13   10   10    3
 0.0001368090743397165   13   10   11    5
 -0.01330020157969073   13   10   11   10
 -0.003443179258608397   13   10   12    6
 -0.001811825713369657   13   10   13    5
 0.02208028283393119   13   10   13   10
 0.02428920508196845   13   11    1    1
 0.01893071617763155   13   11    2    2
 -0.0180029800796589   13   11    3    1
 0.02992498940443216   13   11    3    3
 0.01704524292155792   13   11    4    4
 0.01704524292155793   13   11    5    5
 0.01564904072489237   13   11    6    6
 0.01564904072489235   13   11    7    7
 -0.0161469847292291   13   11    8    2
 0.03227076736186963   13   11    8    8
 -0.00815100248706126   13   11    9    4
 0.01775155101311232   13   11    9    9
 -0.008151002487061274   13   11   10    5
 0.01775155101311231   13   11   10   10
 -0.007262101624557873   13   11   11    1
 0.001890308483529059   13   11   11    3
 0.04068491107713471   13   11   11   11
 0.004502537266342176   13   11   12    2
 0.0150172860980971   13   11   12    8
 0.00723089964840385   13   11   12   12
 0.004232676620549575   13   11   13    1
 0.01100609743438443   13   11   13    3
 0.01216288349818936   13   11   13   11
 0.1941305932382453   13   12    2    1
 0.08956469733025975   13   12    3    2
 0.1763250250108422   13   12    6    5
 0.1763250250108422   13   12    7    4
 0.02785001175943989   13   12    8    1
 0.1848651175007139   13   12    8    3
 -0.07088591993984289   13   12    9    7
 -0.07088591993984283   13   12   10    6
 -0.03333643125886644   13   12   11    2
 0.07782112853105665   13   12   11    8
 0.03579432143582945   13   12   12    1
 0.04640359870615102   13   12   12    3
 -0.008356746901993483   13   12   12   11
 0.04202783371846016   13   12   13    2
 0.04341705175179983   13   12   13    8
 0.2191410587509934   13   12   13   12
 0.3681421065668615   13   13    1    1
 0.3813160427148   13   13    2    2
 0.03667144591657066   13   13    3    1
 0.3715685465187726   13   13    3    3
 0.3492748191521695   13   13    4    4
 0.3492748191521695   13   13    5    5
 0.3566833935180694   13   13    6    6
 0.3566833935180694   13   13    7    7
 0.02943676493970335   13   13    8    2
 0.3766807014951292   13   13    8    8
 -0.06672316770189061   13   13    9    4
 0.3339199211096059   13   13    9    9
 -0.0667231677018906   13   13   10    5
 0.3339199211096059   13   13   10   10
 -0.03265038041760774   13   13   11    1
 0.03480431389551755   13   13   11    3
 0.3250353292644264   13   13   11   11
 0.04925848513464821   13   13   12    2
 0.05004646794843806   13   13   12    8
 0.3671324889199472   13   13   12   12
 0.04112612445819574   13   13   13    1
 0.059560897691084   13   13   13    3
 0.009267776440929687   13   13   13   11
 0.3676203757048588   13   13   13   13
 0.02114202732016966   14    1    5    2
 0.02137347174731576   14    1    6    1
 0.0008414288718526831   14    1    6    3
 -0.005580242739235013   14    1    8    5
 -0.02004686885645762   14    1   10    2
 0.00294114280452099   14    1   10    8
 -0.01514632081129626   14    1   11    6
 0.01051772284116426   14    1   12    5
 -0.006985686216468928   14    1   12   10
 0.01024754113903135   14    1   13    6
 0.01894847798772909   14    1   14    1
 0.02045688062737027   14    2    5    1
 0.001224788392687445   14    2    5    3
 0.02185934102862391   14    2    6    2
 -0.004720652348442608   14    2    8    6
 -0.02027094325060137   14    2   10    1
 -0.002900391231232214   14    2   10    3
 -0.01530316337971477   14    2   11    5