 &FCI NORB=  26,NELEC=10,MS2=0,
  ORBSYM=1,1,1,1,1,1,1,1,1,1,1,1,1,1,1,1,1,1,1,1,1,1,1,1,1,1
  ISYM=1,
 &END
 0.8844970098079624    1    1    1    1
 0.04115901809360721    2    1    2    1
 0.5334274270130986    2    2    1    1
 0.5440421143579049    2    2    2    2
 0.1099712702543251    3    1    3    1
 0.03907382994181517    3    2    3    2
 0.6755875273216795    3    3    1    1
 0.5055702644001281    3    3    2    2
 0.6105419558604892    3    3    3    3
 0.1099712702543251    4    1    4    1
 0.03907382994181518    4    2    4    2
 0.02543809597265138    4    3    4    3
 0.6755875273216796    4    4    1    1
 0.5055702644001281    4    4    2    2
 0.5596657639151864    4    4    3    3
 0.6105419558604892    4    4    4    4
 -0.1513330801504169    5    1    1    1
 -0.01034919090004379    5    1    2    2
 -0.06661324955647431    5    1    3    3
 -0.06661324955647431    5    1    4    4
 0.06347594044647065    5    1    5    1
 0.08046254486986201    5    2    2    1
 0.2145059735095556    5    2    5    2
 0.01347128708633365    5    3    3    1
 0.02505786104432249    5    3    5    3
 0.01347128708633365    5    4    4    1
 0.02505786104432249    5    4    5    4
 0.5860164493412694    5    5    1    1
 0.5485692906198785    5    5    2    2
 0.520648985428241    5    5    3    3
 0.520648985428241    5    5    4    4
 -0.03763397244253693    5    5    5    1
 0.5689723355533615    5    5    5    5
 0.02935800756200367    6    1    4    2
 0.02643623344260491    6    1    6    1
 0.06228795290196018    6    2    4    1
 0.03516227005959885    6    2    5    4
 0.07006614714408547    6    2    6    2
 0.01279403368319625    6    3    6    3
 0.0664132823946276    6    4    2    1
 0.1294197614751449    6    4    5    2
 0.1236717930739366    6    4    6    4
 0.03428876484660862    6    5    4    2
 0.02088769184196869    6    5    6    1
 0.03771184309983111    6    5    6    5
 0.5307094149719425    6    6    1    1
 0.4751929327785138    6    6    2    2
 0.4746330325017492    6    6    3    3
 0.5099772599041299    6    6    4    4
 -0.02501817084696712    6    6    5    1
 0.4785749114784618    6    6    5    5
 0.4671296147160565    6    6    6    6
 0.02935800756200359    7    1    3    2
 0.02643623344260475    7    1    7    1
 0.06228795290196007    7    2    3    1
 0.0351622700595988    7    2    5    3
 0.07006614714408527    7    2    7    2
 0.06641328239462743    7    3    2    1
 0.1294197614751447    7    3    5    2
 0.0980837257075439    7    3    6    4
 0.123671793073936    7    3    7    3
 0.01279403368319622    7    4    6    3
 0.0127940336831962    7    4    7    4
 0.03428876484660858    7    5    3    2
 0.02088769184196864    7    5    7    1
 0.03771184309983101    7    5    7    5
 0.0176721137011903    7    6    4    3
 0.01782538624790423    7    6    7    6
 0.5307094149719411    7    7    1    1
 0.4751929327785128    7    7    2    2
 0.5099772599041288    7    7    3    3
 0.4746330325017482    7    7    4    4
 -0.02501817084696692    7    7    5    1
 0.478574911478461    7    7    5    5
 0.4314788422202476    7    7    6    6
 0.4671296147160551    7    7    7    7
 -0.02211267459036161    8    1    2    1
 -0.03263770150050472    8    1    5    2
 -0.03596043252449642    8    1    6    4
 -0.03596043252449628    8    1    7    3
 0.01522364303001409    8    1    8    1
 -0.1011148208103577    8    2    1    1
 -0.0643743769688947    8    2    2    2
 -0.08442146350330659    8    2    3    3
 -0.08442146350330657    8    2    4    4
 0.01324466959960731    8    2    5    1
 -0.06523291932098574    8    2    5    5
 -0.06039100310794902    8    2    6    6
 -0.06039100310794859    8    2    7    7
 1.310404446497683e-15    8    2    8    1
 0.03537838186609989    8    2    8    2
 -0.01741654751893723    8    3    3    2
 -0.01538027387634585    8    3    7    1
 -0.01090479429570867    8    3    7    5
 0.01080299211574597    8    3    8    3
 -0.01741654751893724    8    4    4    2
 -0.01538027387634591    8    4    6    1
 -0.01090479429570873    8    4    6    5
 0.01080299211574596    8    4    8    4
 -0.004206487733537469    8    5    2    1
 -0.001530696666588203    8    5    5    2
 -0.006574194795973065    8    5    6    4
 -0.006574194795972924    8    5    7    3
 0.006539440207908146    8    5    8    1
 -1.792251359284287e-15    8    5    8    2
 0.02196395237882607    8    5    8    5
 -0.02672694457529785    8    6    4    1
 -0.006618898250137784    8    6    5    4
 -0.01684412877797978    8    6    6    2
 0.01476970208393459    8    6    8    6
 -0.02672694457529777    8    7    3    1
 -0.006618898250137725    8    7    5    3
 -0.01684412877797965    8    7    7    2
 0.01476970208393505    8    7    8    7
 0.3484036228943821    8    8    1    1
 4.412900829103376e-15    8    8    2    1
 0.3599982362729127    8    8    2    2
 0.3356430962925477    8    8    3    3
 0.3356430962925483    8    8    4    4
 -0.003150678526792308    8    8    5    1
 0.3633390320559607    8    8    5    5
 -1.550697104792647e-15    8    8    6    4
 0.3309625999937041    8    8    6    6
 -1.776042667899112e-15    8    8    7    3
 0.330962599993702    8    8    7    7
 -3.79519900370744e-15    8    8    8    1
 0.00183643691104364    8    8    8    2
 7.71303880587061e-15    8    8    8    5
 0.348880493373372    8    8    8    8
 0.0942842551281914    9    1    1    1
 0.02325848170051726    9    1    2    2
 0.03586145332450925    9    1    3    3
 0.03586145332450925    9    1    4    4
 -0.04044952869036832    9    1    5    1
 0.04402553675257644    9    1    5    5
 0.02076625907875597    9    1    6    6
 0.02076625907875577    9    1    7    7
 -0.00581403933579083    9    1    8    2
 0.01352038206240263    9    1    8    8
 0.03687561370235673    9    1    9    1
 -0.0002772440124955949    9    2    2    1
 0.01185723199017308    9    2    5    2
 -0.001449959680752019    9    2    6    4
 -0.001449959680751978    9    2    7    3
 0.005346401140303487    9    2    8    1
 0.01803670623414394    9    2    8    5
 0.01703685217187439    9    2    9    2
 -0.02410998863789022    9    3    3    1
 -0.01189362029424658    9    3    5    3
 -0.0197605848104926    9    3    7    2
 0.009290288532372099    9    3    8    7
 0.01923650578870531    9    3    9    3
 -0.02410998863789023    9    4    4    1
 -0.01189362029424658    9    4    5    4
 -0.01976058481049263    9    4    6    2
 0.009290288532372241    9    4    8    6
 0.01923650578870531    9    4    9    4
 -0.1311034216731656    9    5    1    1
 -0.04500697448064374    9    5    2    2
 -0.0847495818621464    9    5    3    3
 -0.08474958186214639    9    5    4    4
 0.03663976171816771    9    5    5    1
 -0.05797716893428381    9    5    5    5
 -0.05058244136906756    9    5    6    6
 -0.05058244136906729    9    5    7    7
 0.03307808653443365    9    5    8    2
 0.006644793538696855    9    5    8    8
 -0.02048211035558469    9    5    9    1
 0.04338432013938693    9    5    9    5
 -0.00401565802555533    9    6    4    2
 -0.002963338080135871    9    6    6    1
 -0.0008957310090679551    9    6    6    5
 0.005003384953930497    9    6    8    4
 0.007423736376853068    9    6    9    6
 -0.004015658025555309    9    7    3    2
 -0.002963338080135859    9    7    7    1
 -0.0008957310090678946    9    7    7    5
 0.00500338495393057    9    7    8    3
 0.007423736376853091    9    7    9    7
 0.03308793531880987    9    8    2    1
 0.09485946166577944    9    8    5    2
 0.05514439028323999    9    8    6    4
 0.05514439028324015    9    8    7    3
 -0.006772760415370724    9    8    8    1
 -3.93731023815999e-15    9    8    8    2
 0.03016347625995012    9    8    8    5
 6.79376107817563e-14    9    8    8    8
 0.02847033858711326    9    8    9    2
 0.096202430181382    9    8    9    8
 0.4605618101009977    9    9    1    1
 0.3933188918527114    9    9    2    2
 0.4137566140664167    9    9    3    3
 0.4137566140664167    9    9    4    4
 -0.03213633275775357    9    9    5    1
 0.4064922355774798    9    9    5    5
 0.3759453951641692    9    9    6    6
 0.3759453951641687    9    9    7    7
 -0.02468651763274618    9    9    8    2
 0.3309516183135447    9    9    8    8
 0.02114329635460235    9    9    9    1
 -0.02897269802659815    9    9    9    5
 0.3637315806576962    9    9    9    9
 -0.04529407843760767   10    1    3    1
 0.004217027624514346   10    1    5    3
 -0.01619127332168349   10    1    7    2
 0.0116508762905625   10    1    8    7
 -0.00128912020288256   10    1    9    3
 0.03064188581421159   10    1   10    1
 -0.005890173844923518   10    2    3    2
 -0.005577828896299006   10    2    7    1
 0.0001771701716602578   10    2    7    5
 0.006179929174587495   10    2    8    3
 0.003382618992196622   10    2    9    7
 0.01066131920206524   10    2   10    2
 -0.1749430511220685   10    3    1    1
 -0.08758502163104284   10    3    2    2
 -0.1228150409184787   10    3    3    3
 -0.1134142393368618   10    3    4    4
 0.04084719386441415   10    3    5    1
 -0.1008169890478515   10    3    5    5
 -0.07771865977157856   10    3    6    6
 -0.07986670467943789   10    3    7    7
 0.03287742155096995   10    3    8    2
 -0.03111596045145154   10    3    8    8
 -0.03251856681769288   10    3    9    1
 0.03754396606640324   10    3    9    5
 -0.04710832929010476   10    3    9    9
 0.07730234830555954   10    3   10    3
 -0.004700400790808467   10    4    4    3
 -0.001074022453929888   10    4    7    6
 0.008204337784341575   10    4   10    4
 0.02194929079519068   10    5    3    1
 0.0007159529584439125   10    5    5    3
 0.01229585160869256   10    5    7    2
 0.0007457584745438526   10    5    8    7
 -0.00413867534514871   10    5    9    3
 -0.005219857772495797   10    5   10    1
 0.01359827841639718   10    5   10    5
 -0.001161227944647767   10    6    6    3
 -0.001161227944647744   10    6    7    4
 0.006324255805898108   10    6   10    6
 -0.01249578810366288   10    7    2    1
 -0.01013929731557475   10    7    5    2
 -0.0170868814301077   10    7    6    4
 -0.01940933731940297   10    7    7    3
 0.01343091111157609   10    7    8    1
 0.0141089025597454   10    7    8    5
 0.01167480576732295   10    7    9    2
 0.01698708477775273   10    7    9    8
 0.03953741195152335   10    7   10    7
 0.01160819543711621   10    8    3    2
 0.009366174673835473   10    8    7    1
 0.01044838110915235   10    8    7    5
 -0.003634248665558035   10    8    8    3
 0.00343952381665447   10    8    9    7
 -0.001687327418027501   10    8   10    2
 0.007675263898585582   10    8   10    8
 -0.02544910651357564   10    9    3    1
 -0.0007505421611357737   10    9    5    3
 -0.00912381593348925   10    9    7    2
 0.008529325143489865   10    9    8    7
 0.01263020821539084   10    9    9    3
 0.005329381733032309   10    9   10    1
 -0.008364232408969576   10    9   10    5
 0.01848378157409667   10    9   10    9
 0.519415443413511   10   10    1    1
 0.4162068723628721   10   10    2    2
 0.4806614824423049   10   10    3    3
 0.4485743565271726   10   10    4    4
 -0.04172281291143565   10   10    5    1
 0.4270570102575987   10   10    5    5
 0.3964350459153428   10   10    6    6
 0.4236239103246747   10   10    7    7
 -0.05395743332500397   10   10    8    2
 0.3021270256523646   10   10    8    8
 0.02346546022875216   10   10    9    1
 -0.05645769728559646   10   10    9    5
 -1.106757219275802e-15   10   10    9    8
 0.361049844028513   10   10    9    9
 -0.06786982217683363   10   10   10    3
 0.4181847367299449   10   10   10   10
 -0.04529407843760763   11    1    4    1
 0.004217027624514336   11    1    5    4
 -0.01619127332168355   11    1    6    2
 0.01165087629056252   11    1    8    6
 -0.001289120202882566   11    1    9    4
 0.03064188581421155   11    1   11    1
 -0.00589017384492354   11    2    4    2
 -0.005577828896299055   11    2    6    1
 0.0001771701716601948   11    2    6    5
 0.006179929174587501   11    2    8    4
 0.00338261899219662   11    2    9    6
 0.01066131920206524   11    2   11    2
 -0.004700400790808461   11    3    4    3
 -0.00107402245392989   11    3    7    6
 0.008204337784341572   11    3   10    4
 0.008204337784341573   11    3   11    3
 -0.1749430511220685   11    4    1    1
 -0.08758502163104277   11    4    2    2
 -0.1134142393368617   11    4    3    3
 -0.1228150409184787   11    4    4    4
 0.04084719386441411   11    4    5    1
 -0.1008169890478515   11    4    5    5
 -0.07986670467943845   11    4    6    6
 -0.07771865977157803   11    4    7    7
 0.03287742155096977   11    4    8    2
 -0.03111596045144693   11    4    8    8
 -0.03251856681769287   11    4    9    1
 0.03754396606640323   11    4    9    5
 -0.04710832929010467   11    4    9    9
 0.06089367273687637   11    4   10    3
 -0.07018936831975538   11    4   10   10
 0.07730234830555953   11    4   11    4
 0.02194929079519065   11    5    4    1
 0.0007159529584438982   11    5    5    4
 0.0122958516086925   11    5    6    2
 0.0007457584745438249   11    5    8    6
 -0.004138675345148702   11    5    9    4
 -0.005219857772495777   11    5   11    1
 0.01359827841639717   11    5   11    5
 -0.0124957881036631   11    6    2    1
 -0.01013929731557524   11    6    5    2
 -0.01940933731940358   11    6    6    4
 -0.01708688143010788   11    6    7    3
 0.01343091111157612   11    6    8    1
 0.01410890255974515   11    6    8    5
 1.061043598156744e-15   11    6    8    8
 0.01167480576732294   11    6    9    2
 0.01698708477775234   11    6    9    8
 0.02688890033972712   11    6   10    7
 0.03953741195152349   11    6   11    6
 -0.001161227944647736   11    7    6    3
 -0.001161227944647713   11    7    7    4
 0.00632425580589811   11    7   10    6
 0.006324255805898111   11    7   11    7
 0.01160819543711622   11    8    4    2
 0.009366174673835525   11    8    6    1
 0.01044838110915236   11    8    6    5
 -0.003634248665558179   11    8    8    4
 0.003439523816654422   11    8    9    6
 -0.001687327418027481   11    8   11    2
 0.007675263898585352   11    8   11    8
 -0.02544910651357565   11    9    4    1
 -0.0007505421611357832   11    9    5    4
 -0.00912381593348926   11    9    6    2
 0.00852932514348988   11    9    8    6
 0.01263020821539083   11    9    9    4
 0.005329381733032291   11    9   11    1
 -0.008364232408969583   11    9   11    5
 0.01848378157409667   11    9   11    9
 0.01604356295756611   11   10    4    3
 0.01359443220466613   11   10    7    6
 0.001159773071460915   11   10   10    4
 0.001159773071460918   11   10   11    3
 0.01704423411338063   11   10   11   10
 0.519415443413511   11   11    1    1
 0.4162068723628722   11   11    2    2
 0.4485743565271727   11   11    3    3
 0.480661482442305   11   11    4    4
 -0.0417228129114356   11   11    5    1
 0.4270570102575988   11   11    5    5
 0.4236239103246753   11   11    6    6
 0.3964350459153423   11   11    7    7
 -0.05395743332500409   11   11    8    2
 0.3021270256523618   11   11    8    8
 0.02346546022875221   11   11    9    1
 -0.05645769728559648   11   11    9    5
 0.361049844028513   11   11    9    9
 -0.07018936831975538   11   11   10    3
 0.3840962685031838   11   11   10   10
 -0.06786982217683352   11   11   11    4
 0.418184736729945   11   11   11   11
 0.08420799364765157   12    1    1    1
 0.04699674208355137   12    1    2    2
 0.05180717784869405   12    1    3    3
 0.05180717784869406   12    1    4    4
 -0.02111377462881768   12    1    5    1
 0.05542283670392697   12    1    5    5
 0.03761485447220431   12    1    6    6
 0.03761485447220404   12    1    7    7
 -0.01583382097138535   12    1    8    2
 0.01571506862345629   12    1    8    8
 0.02146795523325493   12    1    9    1
 -0.01858038371640195   12    1    9    5
 0.02075100709639418   12    1    9    9
 -0.03481139403520852   12    1   10    3
 0.03108985365237075   12    1   10   10
 -0.03481139403520854   12    1   11    4
 0.03108985365237075   12    1   11   11
 0.02095911603685248   12    1   12    1
 0.03513932729753461   12    2    2    1
 0.08807718710735039   12    2    5    2
 0.05362689493491044   12    2    6    4
 0.05362689493491024   12    2    7    3
 -0.02002862717417699   12    2    8    1
 -0.02004706540524925   12    2    8    5
 4.198757761155855e-15   12    2    8    8
 -0.01080378679940606   12    2    9    2
 0.009689961318587669   12    2    9    8
 -0.03030288397506118   12    2   10    7
 -0.03030288397506137   12    2   11    6
 0.06590928229301601   12    2   12    2
 -0.003486684929964852   12    3    3    1
 -0.0008112418269780754   12    3    5    3
 -0.0007327810266298313   12    3    7    2
 -0.004179791042222094   12    3    8    7
 0.01074691944930659   12    3    9    3
 -0.01103134077109296   12    3   10    1
 -0.01070629606933207   12    3   10    5
 0.01009971750541831   12    3   10    9
 0.02067712643781014   12    3   12    3
 -0.003486684929964851   12    4    4    1
 -0.0008112418269780773   12    4    5    4
 -0.0007327810266297741   12    4    6    2
 -0.004179791042222061   12    4    8    6
 0.01074691944930659   12    4    9    4
 -0.01103134077109296   12    4   11    1
 -0.01070629606933207   12    4   11    5
 0.01009971750541831   12    4   11    9
 0.02067712643781014   12    4   12    4
 0.06223456293594624   12    5    1    1
 0.1000916942475139   12    5    2    2
 0.06475026303069772   12    5    3    3
 0.06475026303069774   12    5    4    4
 0.005510341764997072   12    5    5    1
 0.1008138416722346   12    5    5    5
 0.0601377175676043   12    5    6    6
 0.06013771756760395   12    5    7    7
 -0.02913494086968077   12    5    8    2
 0.02181954470663042   12    5    8    8
 0.005802381336032553   12    5    9    1
 -0.01882676112208364   12    5    9    5
 0.02555052957778195   12    5    9    9
 -0.0344378244346165   12    5   10    3
 0.03911335866621054   12    5   10   10
 -0.03443782443461652   12    5   11    4
 0.03911335866621061   12    5   11   11
 0.02035659341827374   12    5   12    1
 0.05959536390752085   12    5   12    5
 0.006106259633248629   12    6    4    2
 0.004021019605677727   12    6    6    1
 0.001302163869290395   12    6    6    5
 -0.005866529743482382   12    6    8    4
 -0.003155544360221872   12    6    9    6
 -0.01292621899271334   12    6   11    2
 0.001322885244944527   12    6   11    8
 0.01800794008877862   12    6   12    6
 0.006106259633248508   12    7    3    2
 0.004021019605677603   12    7    7    1
 0.001302163869290209   12    7    7    5
 -0.005866529743482292   12    7    8    3
 -0.003155544360221888   12    7    9    7
 -0.01292621899271333   12    7   10    2
 0.00132288524494443   12    7   10    8
 0.01800794008877864   12    7   12    7
 -0.03132621560153386   12    8    2    1
 -0.08266030796888492   12    8    5    2
 -0.05087293122553948   12    8    6    4
 -0.05087293122553947   12    8    7    3
 0.01113146928749265   12    8    8    1
 2.533245410540132e-15   12    8    8    2
 -0.01269325376863866   12    8    8    5
 -3.306391369145475e-14   12    8    8    8
 -0.01450206985826746   12    8    9    2
 -0.06034734191348363   12    8    9    8
 -1.188163442777929e-15   12    8    9    9
 0.001404347506681797   12    8   10    7
 0.001404347506681953   12    8   11    6
 -0.02636815484029004   12    8   12    2
 0.04638690116657312   12    8   12    8
 0.05526753905293493   12    9    1    1
 -0.003803212661581404   12    9    2    2
 0.03978360861413506   12    9    3    3
 0.03978360861413505   12    9    4    4
 -0.01555083489376143   12    9    5    1
 -0.001948221978154988   12    9    5    5
 0.01487960121554212   12    9    6    6
 0.01487960121554208   12    9    7    7
 -0.01556527954772369   12    9    8    2
 -0.0233728691438336   12    9    8    8
 -0.003835399203967969   12    9    9    1
 -0.02087057410772935   12    9    9    5
 0.01184392006064473   12    9    9    9
 -0.0007677595488523568   12    9   10    3
 0.03024422408526825   12    9   10   10
 -0.0007677595488523889   12    9   11    4
 0.03024422408526834   12    9   11   11
 -0.003464791636965179   12    9   12    1
 -0.009937161444716028   12    9   12    5
 0.03253859370375971   12    9   12    9
 -0.05225538869808848   12   10    3    1
 -0.02312010039963361   12   10    5    3
 -0.04916772040745312   12   10    7    2
 0.01078528962776723   12   10    8    7
 0.0219359951285615   12   10    9    3
 0.008700437439077474   12   10   10    1
 -0.01627231716426408   12   10   10    5
 0.01838072764579969   12   10   10    9
 0.01294446099026158   12   10   12    3
 0.05084259877296388   12   10   12   10
 -0.0522553886980885   12   11    4    1
 -0.02312010039963362   12   11    5    4
 -0.04916772040745319   12   11    6    2
 0.01078528962776728   12   11    8    6
 0.0219359951285615   12   11    9    4
 0.008700437439077467   12   11   11    1
 -0.01627231716426406   12   11   11    5
 0.01838072764579972   12   11   11    9
 0.01294446099026159   12   11   12    4
 0.05084259877296391   12   11   12   11
 0.4865816812901154   12   12    1    1
 0.4625213411365636   12   12    2    2
 0.4585183754742832   12   12    3    3
 0.4585183754742831   12   12    4    4
 -0.01713156888178735   12   12    5    1
 0.4687366468027617   12   12    5    5
 0.4229366968849133   12   12    6    6
 0.4229366968849128   12   12    7    7
 -0.05340514255002343   12   12    8    2
 0.3266928030040537   12   12    8    8
 0.01517127856701561   12   12    9    1
 -0.04517091838313288   12   12    9    5
 -2.49256417537518e-15   12   12    9    8
 0.3688890913558823   12   12    9    9
 -0.06385498845878483   12   12   10    3
 0.3934882542956079   12   12   10   10
 -0.06385498845878475   12   12   11    4
 0.393488254295608   12   12   11   11
 0.03126100997250057   12   12   12    1
 0.06871852088279211   12   12   12    5
 2.196462115878914e-15   12   12   12    8
 0.01130378916474353   12   12   12    9
 0.4202662366694929   12   12   12   12
 0.01913346528137873   13    1    4    2
 0.01969398733824704   13    1    6    1
 0.009090118441614907   13    1    6    5
 -0.01237532765998591   13    1    8    4
 -0.001815720475839507   13    1    9    6
 -0.009651364533306898   13    1   11    2
 0.00724099689839619   13    1   11    8
 0.009856466054689343   13    1   12    6
 0.01950655599752506   13    1   13    1
 0.02698874273352428   13    2    4    1
 0.01127042948666191   13    2    5    4
 0.0235569050171675   13    2    6    2
 -0.01520708312325312   13    2    8    6
 -0.005465186424647801   13    2    9    4
 -0.01618968951207988   13    2   11    1
 -0.006053849047382719   13    2   11    5
 -0.001690316072856367   13    2   11    9
 0.01476874935299002   13    2   12    4
 -0.009233105453523637   13    2   12   11
 0.02453872098033115   13    2   13    2
 0.006843620587564803   13    3    6    3
 0.006843620587564772   13    3    7    4
 -0.005891226716375604   13    3   10    6
 -0.005891226716375589   13    3   11    7
 0.008167867204943365   13    3   13    3
 0.04274086911980311   13    4    2    1
 0.07303395366541496   13    4    5    2
 0.07600929289546567   13    4    6    4
 0.06232205172033572   13    4    7    3
 -0.0284960691825959   13    4    8    1
 -0.01451272613776038   13    4    8    5
 -0.009796638862584599   13    4    9    2
 0.01357724724678735   13    4    9    8
 -0.03109332886245571   13    4   10    7
 -0.04287578229520726   13    4   11    6
 0.052467882738763   13    4   12    2
 -0.02711704243944362   13    4   12    8
 0.07317695783052579   13    4   13    4
 0.01129322661328024   13    5    4    2
 0.004859482846813526   13    5    6    1
 0.01001819938160779   13    5    6    5
 -0.006432046736611173   13    5    8    4
 -0.005345197737563105   13    5    9    6
 -0.009263889508681407   13    5   11    2
 0.001028743621302902   13    5   11    8
 0.0134666666292465   13    5   12    6
 0.005656796827098914   13    5   13    1
 0.0146794797709047   13    5   13    5
 0.177500438073807   13    6    1    1
 0.1166785976613991   13    6    2    2
 0.1313054386765037   13    6    3    3
 0.1446023155611777   13    6    4    4
 -0.02848774946602309   13    6    5    1
 0.1237277799761084   13    6    5    5
 0.1028568666399498   13    6    6    6
 0.09660313938115989   13    6    7    7
 -0.04352220673994066   13    6    8    2
 0.03406985690776573   13    6    8    8
 0.0233034972121461   13    6    9    1
 -0.04181941937243566   13    6    9    5
 0.05648014224406883   13    6    9    9
 -0.06197530587928381   13    6   10    3
 0.08364549375833351   13    6   10   10
 -0.07644988006969976   13    6   11    4
 0.08407607813494181   13    6   11   11
 0.03444334906530386   13    6   12    1
 0.04882811401888309   13    6   12    5
 -1.201466654691647e-15   13    6   12    8
 0.005799971220587507   13    6   12    9
 0.08651691248291432   13    6   12   12
 0.09004279554833965   13    6   13    6
 0.006648438442336925   13    7    4    3
 0.003126863629394488   13    7    7    6
 -0.007237287095207973   13    7   10    4
 -0.007237287095207973   13    7   11    3
 0.0002152921883041098   13    7   11   10
 0.009168077102074977   13    7   13    7
 -0.02869847043243046   13    8    4    1
 -0.01333773827491109   13    8    5    4
 -0.03027337997322083   13    8    6    2
 0.002786658994521717   13    8    8    6
 0.004825318754369324   13    8    9    4
 0.01029425705262284   13    8   11    1
 -0.006648278265666048   13    8   11    5
 -2.277586673534684e-05   13    8   11    9
 -0.001245443532218879   13    8   12    4
 0.02248661889308663   13    8   12   11
 -0.008806969615989752   13    8   13    2
 0.01964998796521683   13    8   13    8
 -0.007161614059380044   13    9    4    2
 -0.002706078715700366   13    9    6    1
 -0.01056126656959208   13    9    6    5
 -0.0003140897295598142   13    9    8    4
 -0.003453594299096383   13    9    9    6
 -0.001630307501985007   13    9   11    2
 -0.005677967598194063   13    9   11    8
 0.001855463022014081   13    9   12    6
 0.0005331286493713837   13    9   13    1
 -0.00099999631011536   13    9   13    5
 0.007889438057049641   13    9   13    9
 -0.009121522760511331   13   10    6    3
 -0.009121522760511315   13   10    7    4
 -3.454903545059291e-06   13   10   10    6
 -3.454903545096135e-06   13   10   11    7
 -0.004426224972522444   13   10   13    3
 0.009377862094128964   13   10   13   10
 -0.05388443292192369   13   11    2    1
 -0.1068697159568453   13   11    5    2
 -0.1014435926774308   13   11    6    4
 -0.08320054715640793   13   11    7    3
 0.02910564588808166   13   11    8    1
 0.0005191560357029722   13   11    8    5
 -0.002186378444778174   13   11    9    2
 -0.05272701073646194   13   11    9    8
 0.0138539233693488   13   11   10    7
 0.01384701356225887   13   11   11    6
 -0.04285116499733263   13   11   12    2
 0.04827463722149598   13   11   12    8
 -0.06181395541114969   13   11   13    4
 0.09636678321729891   13   11   13   11
 0.030480301024264   13   12    4    2
 0.02159097515651277   13   12    6    1
 0.02973472393019663   13   12    6    5
 -0.01110275745402156   13   12    8    4
 2.480458844539013e-06   13   12    9    6
 -0.001845578362641049   13   12   11    2
 0.0118632602079453   13   12   11    8
 0.0006933445826772141   13   12   12    6
 0.01241084154332303   13   12   13    1
 0.006215444174954797   13   12   13    5
 -0.009040632923802375   13   12   13    9
 0.03107964296933559   13   12   13   12
 0.5298641710025637   13   13    1    1
 0.4552688082092962   13   13    2    2
 0.4649665162061605   13   13    3    3
 0.4943289632958075   13   13    4    4
 -0.03568757632219329   13   13    5    1
 0.4641288480630253   13   13    5    5
 0.4473480674964061   13   13    6    6
 0.418299117640751   13   13    7    7
 -0.05979734588910753   13   13    8    2
 0.3224941403312949   13   13    8    8
 0.03038970590677498   13   13    9    1
 -0.05585337094957131   13   13    9    5
 0.3649758514272278   13   13    9    9
 -0.0866131104873792   13   13   10    3
 0.391839510443328   13   13   10   10
 -0.09182997995283236   13   13   11    4
 0.4188099752590999   13   13   11   11
 0.04358635353413857   13   13   12    1
 0.06242205093385105   13   13   12    5
 0.01038734733146593   13   13   12    9
 0.4121255653184941   13   13   12   12
 0.1084831220122614   13   13   13    6
 0.4484209674379813   13   13   13   13
 0.01913346528137884   14    1    3    2
 0.01969398733824707   14    1    7    1
 0.009090118441614971   14    1    7    5
 -0.01237532765998596   14    1    8    3
 -0.001815720475839499   14    1    9    7
 -0.009651364533306903   14    1   10    2
 0.007240996898396209   14    1   10    8
 0.009856466054689306   14    1   12    7
 0.0195065559975252   14    1   14    1
 0.02698874273352452   14    2    3    1
 0.01127042948666206   14    2    5    3
 0.02355690501716767   14    2    7    2
 -0.01520708312325312   14    2    8    7
 -0.005465186424647862   14    2    9    3
 -0.01618968951207994   14    2   10    1
 -0.006053849047382666   14    2   10    5
 -0.001690316072856414   14    2   10    9
 0.01476874935299003   14    2   12    3
 -0.009233105453523825   14    2   12   10
 0.02453872098033134   14    2   14    2
 0.04274086911980336   14    3    2    1
 0.07303395366541547   14    3    5    2
 0.06232205172033636   14    3    6    4
 0.07600929289546583   14    3    7    3
 -0.02849606918259606   14    3    8    1
 -0.01451272613776036   14    3    8    5
 -0.00979663886258462   14    3    9    2
 0.01357724724678799   14    3    9    8
 -0.04287578229520697   14    3   10    7
 -0.03109332886245604   14    3   11    6
 0.05246788273876314   14    3   12    2
 -0.02711704243944386   14    3   12    8