 &FCI NORB=  26,NELEC=10,MS2=0,
  ORBSYM=1,1,1,1,1,1,1,1,1,1,1,1,1,1,1,1,1,1,1,1,1,1,1,1,1,1
  ISYM=1,
 &END
 0.4631153986794361    1    1    1    1
 0.2288952673045271    2    1    2    1
 0.4583734320935504    2    2    1    1
 0.4636672345347031    2    2    2    2
 -0.02380506258219313    3    1    1    1
 0.003376842853032194    3    1    2    2
 0.07582168127006318    3    1    3    1
 0.06570969537174283    3    2    2    1
 0.07325194012721635    3    2    3    2
 0.4446445855438601    3    3    1    1
 0.4408534162113681    3    3    2    2
 -0.01656444005920111    3    3    3    1
 0.4528008160987971    3    3    3    3
 0.06803811508495826    4    1    4    1
 0.06207603830826849    4    2    4    2
 0.001025622340449012    4    3    4    1
 0.01790593874693382    4    3    4    3
 0.4335099942382402    4    4    1    1
 0.4314882216247261    4    4    2    2
 -0.01561064436575066    4    4    3    1
 0.407992098217149    4    4    3    3
 0.4315249584468705    4    4    4    4
 0.06803811508495823    5    1    5    1
 0.0620760383082685    5    2    5    2
 0.001025622340449012    5    3    5    1
 0.01790593874693382    5    3    5    3
 0.01618945765361498    5    4    5    4
 0.4335099942382402    5    5    1    1
 0.4314882216247261    5    5    2    2
 -0.01561064436575066    5    5    3    1
 0.407992098217149    5    5    3    3
 0.3991460431396405    5    5    4    4
 0.4315249584468705    5    5    5    5
 0.06202813576628625    6    1    5    2
 0.06213614328304513    6    1    6    1
 0.06929445779526135    6    2    5    1
 0.005874937036915779    6    2    5    3
 0.07204923032821781    6    2    6    2
 0.01026724969309808    6    3    5    2
 0.008756911138317237    6    3    6    1
 0.01640991778681558    6    3    6    3
 0.01620213310971624    6    4    6    4
 0.2117871845955    6    5    2    1
 0.0572452869304342    6    5    3    2
 0.219552351420906    6    5    6    5
 0.4385089721268132    6    6    1    1
 0.4396494421913166    6    6    2    2
 -0.007903427371430521    6    6    3    1
 0.4115310994971251    6    6    3    3
 0.4037543292719185    6    6    4    4
 0.4372240157932623    6    6    5    5
 0.4447377560344566    6    6    6    6
 0.06202813576628631    7    1    4    2
 0.06213614328304525    7    1    7    1
 0.0692944577952614    7    2    4    1
 0.005874937036915784    7    2    4    3
 0.07204923032821793    7    2    7    2
 0.01026724969309808    7    3    4    2
 0.008756911138317244    7    3    7    1
 0.0164099177868156    7    3    7    3
 0.2117871845955002    7    4    2    1
 0.05724528693043424    7    4    3    2
 0.1871480852014738    7    4    6    5
 0.2195523514209064    7    4    7    4
 0.01620213310971624    7    5    6    4
 0.01620213310971626    7    5    7    5
 0.01673484326067194    7    6    5    4
 0.01752517353529144    7    6    7    6
 0.4385089721268137    7    7    1    1
 0.4396494421913172    7    7    2    2
 -0.007903427371430518    7    7    3    1
 0.4115310994971256    7    7    3    3
 0.4372240157932628    7    7    4    4
 0.4037543292719189    7    7    5    5
 0.4096874089638742    7    7    6    6
 0.4447377560344575    7    7    7    7
 -0.02295835008873568    8    1    2    1
 0.05227515313240642    8    1    3    2
 -0.02430059957400733    8    1    6    5
 -0.02430059957400738    8    1    7    4
 0.06624330124283707    8    1    8    1
 -0.03637972055977172    8    2    1    1
 -0.01217167941036198    8    2    2    2
 0.07086608646694686    8    2    3    1
 -0.0188869278292398    8    2    3    3
 -0.03004276015118789    8    2    4    4
 -0.03004276015118789    8    2    5    5
 -0.0244544005868933    8    2    6    6
 -0.02445440058689337    8    2    7    7
 0.07210273969356851    8    2    8    2
 0.2024283395890396    8    3    2    1
 0.05871352993986563    8    3    3    2
 0.1785612181679402    8    3    6    5
 0.1785612181679404    8    3    7    4
 -0.02119414888786253    8    3    8    1
 0.2012905466439593    8    3    8    3
 -0.008623725789379474    8    4    4    2
 -0.01023633116740001    8    4    7    1
 0.01440302357938474    8    4    7    3
 0.01829691663272468    8    4    8    4
 -0.008623725789379472    8    5    5    2
 -0.0102363311674    8    5    6    1
 0.01440302357938472    8    5    6    3
 0.01829691663272467    8    5    8    5
 -0.01226549991788506    8    6    5    1
 0.01649571441346606    8    6    5    3
 -0.008511703604689272    8    6    6    2
 0.01941970581091999    8    6    8    6
 -0.01226549991788508    8    7    4    1
 0.01649571441346608    8    7    4    3
 -0.008511703604689306    8    7    7    2
 0.01941970581092004    8    7    8    7
 0.4602943500359065    8    8    1    1
 0.4543070265182645    8    8    2    2
 -0.02736782129881    8    8    3    1
 0.4606663325131857    8    8    3    3
 0.4211339377672218    8    8    4    4
 0.4211339377672217    8    8    5    5
 0.4256310412970689    8    8    6    6
 0.4256310412970695    8    8    7    7
 -0.03526044174092052    8    8    8    2
 0.4817267704213978    8    8    8    8
 -0.02069593164631535    9    1    4    1
 -0.00498037526758045    9    1    4    3
 -0.0234823552969842    9    1    7    2
 0.002753876262571037    9    1    8    7
 0.02157067227254174    9    1    9    1
 -0.026818902379755    9    2    4    2
 -0.02678459662787606    9    2    7    1
 -0.004983519305766348    9    2    7    3
 0.003838444436857988    9    2    8    4
 0.02243797017966199    9    2    9    2
 -0.009906722053466269    9    3    4    1
 -0.002973881482088091    9    3    4    3
 -0.01003764752503913    9    3    7    2
 -0.00319709974807765    9    3    8    7
 0.001668553678285425    9    3    9    1
 0.01007719149359833    9    3    9    3
 -0.09015771326583212    9    4    1    1
 -0.09619412421340251    9    4    2    2
 -0.008298914528892046    9    4    3    1
 -0.07677685043276863    9    4    3    3
 -0.08451534785396722    9    4    4    4
 -0.07636928116196345    9    4    5    5
 -0.08184107648394957    9    4    6    6
 -0.0917511324058608    9    4    7    7
 0.003999061448305743    9    4    8    2
 -0.08860810413635026    9    4    8    8
 0.07009943418097979    9    4    9    4
 -0.004073033346001879    9    5    5    4
 -0.004955027960955446    9    5    7    6
 0.007927637974437593    9    5    9    5
 -0.005589968171477192    9    6    6    4
 -0.005589968171477212    9    6    7    5
 0.007705173717665201    9    6    9    6
 -0.09778350316272258    9    7    2    1
 -0.02397629707019929    9    7    3    2
 -0.08386951018755166    9    7    6    5
 -0.0950494465305063    9    7    7    4
 0.01536017979243954    9    7    8    1
 -0.08195340442527359    9    7    8    3
 0.07587148178076099    9    7    9    7
 0.004134859576358285    9    8    4    2
 0.00482418706585886    9    8    7    1
 -0.005401838220684321    9    8    7    3
 -0.007305382889855827    9    8    8    4
 -0.002100592577405355    9    8    9    2
 0.008352267460561141    9    8    9    8
 0.4015952851496077    9    9    1    1
 0.3996482537474067    9    9    2    2
 -0.0140210969463711    9    9    3    1
 0.3823756245227179    9    9    3    3
 0.3996244589140464    9    9    4    4
 0.3741363583989796    9    9    5    5
 0.37803064209166    9    9    6    6
 0.4039233787493894    9    9    7    7
 -0.02576924703425309    9    9    8    2
 0.393298156142745    9    9    8    8
 -0.07675998372344914    9    9    9    4
 0.3866549064036706    9    9    9    9
 -0.02069593164631535   10    1    5    1
 -0.004980375267580455   10    1    5    3
 -0.02348235529698415   10    1    6    2
 0.00275387626257102   10    1    8    6
 0.02157067227254174   10    1   10    1
 -0.026818902379755   10    2    5    2
 -0.02678459662787601   10    2    6    1
 -0.004983519305766342   10    2    6    3
 0.003838444436857982   10    2    8    5
 0.022437970179662   10    2   10    2
 -0.00990672205346628   10    3    5    1
 -0.002973881482088091   10    3    5    3
 -0.01003764752503913   10    3    6    2
 -0.003197099748077629   10    3    8    6
 0.001668553678285429   10    3   10    1
 0.01007719149359833   10    3   10    3
 -0.004073033346001879   10    4    5    4
 -0.004955027960955446   10    4    7    6
 0.007927637974437593   10    4    9    5
 0.007927637974437591   10    4   10    4
 -0.09015771326583212   10    5    1    1
 -0.09619412421340254   10    5    2    2
 -0.008298914528892058   10    5    3    1
 -0.07677685043276861   10    5    3    3
 -0.07636928116196343   10    5    4    4
 -0.08451534785396719   10    5    5    5
 -0.09175113240586039   10    5    6    6
 -0.08184107648394985   10    5    7    7
 0.003999061448305734   10    5    8    2
 -0.08860810413635026   10    5    8    8
 0.0542441582321046   10    5    9    4
 -0.07118385741618459   10    5    9    9
 0.07009943418097982   10    5   10    5
 -0.09778350316272207   10    6    2    1
 -0.02397629707019916   10    6    3    2
 -0.09504944653050559   10    6    6    5
 -0.08386951018755133   10    6    7    4
 0.01536017979243948   10    6    8    1
 -0.08195340442527319   10    6    8    3
 0.06046113434543032   10    6    9    7
 0.07587148178076056   10    6   10    6
 -0.005589968171477225   10    7    6    4
 -0.005589968171477246   10    7    7    5
 0.007705173717665213   10    7    9    6
 0.007705173717665223   10    7   10    7
 0.004134859576358276   10    8    5    2
 0.004824187065858842   10    8    6    1
 -0.005401838220684302   10    8    6    3
 -0.007305382889855824   10    8    8    5
 -0.00210059257740535   10    8   10    2
 0.00835226746056114   10    8   10    8
 0.01274405025753331   10    9    5    4
 0.0129463683288644   10    9    7    6
 -0.002788063153632228   10    9    9    5
 -0.002788063153632228   10    9   10    4
 0.01332747625355967   10    9   10    9
 0.4015952851496077   10   10    1    1
 0.3996482537474068   10   10    2    2
 -0.0140210969463711   10   10    3    1
 0.3823756245227179   10   10    3    3
 0.3741363583989796   10   10    4    4
 0.3996244589140463   10   10    5    5
 0.4039233787493891   10   10    6    6
 0.3780306420916605   10   10    7    7
 -0.02576924703425306   10   10    8    2
 0.393298156142745   10   10    8    8
 -0.0711838574161846   10   10    9    4
 0.3599999538965509   10   10    9    9
 -0.07675998372344914   10   10   10    5
 0.3866549064036705   10   10   10   10
 0.03889401503295652   11    1    2    1
 0.02525998890039654   11    1    3    2
 0.03380148502675922   11    1    6    5
 0.03380148502675929   11    1    7    4
 0.01094794077486344   11    1    8    1
 0.02923028643649496   11    1    8    3
 -0.02942865259712022   11    1    9    7
 -0.02942865259712014   11    1   10    6
 0.02495621692853052   11    1   11    1
 0.05433008917443854   11    2    1    1
 0.06255092855517586   11    2    2    2
 0.01989278824320989   11    2    3    1
 0.05080235030482938   11    2    3    3
 0.04897387327567126   11    2    4    4
 0.04897387327567126   11    2    5    5
 0.05271623434373875   11    2    6    6
 0.05271623434373894   11    2    7    7
 0.0143590550506845   11    2    8    2
 0.04864837405152256   11    2    8    8
 -0.035172877615405   11    2    9    4
 0.04693151716993064   11    2    9    9
 -0.03517287761540501   11    2   10    5
 0.04693151716993067   11    2   10   10
 0.03647848728394418   11    2   11    2
 0.06754174570970591   11    3    2    1
 0.01914865226988875   11    3    3    2
 0.05713123949976604   11    3    6    5
 0.05713123949976615   11    3    7    4
 -0.008664677900754833   11    3    8    1
 0.0626196222443339   11    3    8    3
 -0.046613470922564   11    3    9    7
 -0.04661347092256386   11    3   10    6
 0.03035531092756459   11    3   11    1
 0.05289889559392476   11    3   11    3
 0.00757750750243274   11    4    4    2
 0.007240490137922816   11    4    7    1
 0.004223377912465703   11    4    7    3
 0.001686154136596941   11    4    8    4
 -0.01144662996528498   11    4    9    2
 -0.004392636465816004   11    4    9    8
 0.01066089972979278   11    4   11    4
 0.007577507502432741   11    5    5    2
 0.007240490137922787   11    5    6    1
 0.004223377912465683   11    5    6    3
 0.001686154136596942   11    5    8    5
 -0.01144662996528499   11    5   10    2
 -0.004392636465816005   11    5   10    8
 0.01066089972979278   11    5   11    5
 0.006424339757888978   11    6    5    1
 0.004523496889183591   11    6    5    3
 0.007972351643435903   11    6    6    2
 0.00212584799839098   11    6    8    6
 -0.011332954650082   11    6   10    1
 -0.006867532139637833   11    6   10    3
 0.01220946531851381   11    6   11    6
 0.006424339757889062   11    7    4    1
 0.004523496889183624   11    7    4    3
 0.007972351643436031   11    7    7    2
 0.002125847998391011   11    7    8    7
 -0.01133295465008202   11    7    9    1
 -0.00686753213963785   11    7    9    3
 0.01220946531851382   11    7   11    7
 0.07726997830499378   11    8    1    1
 0.07702280753978717   11    8    2    2
 -0.005444070546055593   11    8    3    1
 0.07578648534902842   11    8    3    3
 0.06487601937288461   11    8    4    4
 0.06487601937288462   11    8    5    5
 0.06686010600876115   11    8    6    6
 0.06686010600876136   11    8    7    7
 -0.009965642195324205   11    8    8    2
 0.08134991970404702   11    8    8    8
 -0.03874320859924156   11    8    9    4
 0.06231604919098535   11    8    9    9
 -0.03874320859924155   11    8   10    5
 0.06231604919098539   11    8   10   10
 0.03443474745800935   11    8   11    2
 0.04958496542711159   11    8   11    8
 -0.02695478695417699   11    9    4    2
 -0.02603926959204855   11    9    7    1
 -0.01280964068927929   11    9    7    3
 -0.005432646175802967   11    9    8    4
 0.01078226466183195   11    9    9    2
 0.001700710631419263   11    9    9    8
 -0.003900004379360434   11    9   11    4
 0.02040127749642531   11    9   11    9
 -0.02695478695417699   11   10    5    2
 -0.02603926959204853   11   10    6    1
 -0.01280964068927928   11   10    6    3
 -0.005432646175802967   11   10    8    5
 0.01078226466183195   11   10   10    2
 0.001700710631419267   11   10   10    8
 -0.003900004379360432   11   10   11    5
 0.02040127749642531   11   10   11   10
 0.3635154904699187   11   11    1    1
 0.3799424502566457   11   11    2    2
 0.03932403810144761   11   11    3    1
 0.3709999965549266   11   11    3    3
 0.3451520555596321   11   11    4    4
 0.3451520555596321   11   11    5    5
 0.3541149416495653   11   11    6    6
 0.3541149416495656   11   11    7    7
 0.03128563294010051   11   11    8    2
 0.3754870610792049   11   11    8    8
 -0.06683149223003101   11   11    9    4
 0.3310925785565396   11   11    9    9
 -0.06683149223003097   11   11   10    5
 0.3310925785565396   11   11   10   10
 0.04620010983676495   11   11   11    2
 0.04576029571341399   11   11   11    8
 0.3706055523230638   11   11   11   11
 -0.07248324074429473   12    1    1    1
 -0.07509312605730206   12    1    2    2
 0.001864517932578806   12    1    3    1
 -0.05762081888340559   12    1    3    3
 -0.06287571961542557   12    1    4    4
 -0.06287571961542555   12    1    5    5
 -0.06779176351225756   12    1    6    6
 -0.06779176351225787   12    1    7    7
 0.01424969118318784   12    1    8    2
 -0.07418105608216119   12    1    8    8
 0.05070709747926899   12    1    9    4
 -0.05768662691802456   12    1    9    9
 0.05070709747926899   12    1   10    5
 -0.05768662691802456   12    1   10   10
 -0.02550674389454416   12    1   11    2
 -0.034115915779016   12    1   11    8
 -0.04667129315083488   12    1   11   11
 0.04771255360060121   12    1   12    1
 -0.07620219373095952   12    2    2    1
 -0.007330683484736714   12    2    3    2
 -0.06854650704557219   12    2    6    5
 -0.06854650704557232   12    2    7    4
 0.02451200818015895   12    2    8    1
 -0.06470746470572006   12    2    8    3
 0.05319527317923513   12    2    9    7
 0.05319527317923495   12    2   10    6
 -0.02090149482245904   12    2   11    1
 -0.03925622735599354   12    2   11    3
 0.04622885823321334   12    2   12    2
 -0.0005218469277488506   12    3    1    1
 0.003247057323427841   12    3    2    2
 0.005367459865055283   12    3    3    1
 -0.004108039203920618   12    3    3    3
 -0.001842696399831099   12    3    4    4
 -0.001842696399831099   12    3    5    5
 0.001363566929103922   12    3    6    6
 0.001363566929103957   12    3    7    7
 -0.001094752181934197   12    3    8    2
 0.01007375821945224   12    3    8    8
 -0.009910252888132159   12    3    9    4
 -0.003752091268752437   12    3    9    9
 -0.009910252888132166   12    3   10    5
 -0.003752091268752452   12    3   10   10
 -0.007789109429520988   12    3   11    2
 -0.004197616245303082   12    3   11    8
 0.01014670871196072   12    3   11   11
 -0.0149211262625159   12    3   12    1
 0.02481444610492879   12    3   12    3
 -0.007197403167166567   12    4    4    1
 -0.001902285360003425   12    4    4    3
 -0.009325871769984529   12    4    7    2
 0.004113032578499902   12    4    8    7
 0.01958087662060085   12    4    9    1
 -0.002505730648286578   12    4    9    3
 -0.0100908886956467   12    4   11    7
 0.0216456502851393   12    4   12    4
 -0.007197403167166567   12    5    5    1
 -0.001902285360003425   12    5    5    3
 -0.009325871769984477   12    5    6    2
 0.004113032578499889   12    5    8    6
 0.01958087662060086   12    5   10    1
 -0.002505730648286578   12    5   10    3
 -0.0100908886956467   12    5   11    6
 0.0216456502851393   12    5   12    5
 -0.01486190533253225   12    6    5    2
 -0.015272131733755   12    6    6    1
 0.001079465019513437   12    6    6    3
 0.006721332065946523   12    6    8    5
 0.01840162840796996   12    6   10    2
 -0.004363123894503538   12    6   10    8
 -0.009241593752608595   12    6   11    5
 0.002804887288784843   12    6   11   10
 0.01836937652361557   12    6   12    6
 -0.01486190533253237   12    7    4    2
 -0.01527213173375518   12    7    7    1
 0.001079465019513421   12    7    7    3
 0.006721332065946546   12    7    8    4
 0.01840162840797   12    7    9    2
 -0.004363123894503555   12    7    9    8
 -0.009241593752608603   12    7   11    4
 0.002804887288784899   12    7   11    9
 0.01836937652361562   12    7   12    7
 0.06893924380854402   12    8    2    1
 0.003391093281744039   12    8    3    2
 0.06254565447053299   12    8    6    5
 0.06254565447053305   12    8    7    4
 -0.02563005051680881   12    8    8    1
 0.06841383204602895   12    8    8    3
 -0.03235987454434204   12    8    9    7
 -0.03235987454434189   12    8   10    6
 -0.0004039844032416027   12    8   11    1
 0.01406662185684679   12    8   11    3
 -0.02974857881402856   12    8   12    2
 0.04067694086818501   12    8   12    8
 0.05239177473079486   12    9    4    1
 -0.003526771956609824   12    9    4    3
 0.05166483176306821   12    9    7    2
 -0.01188412795325479   12    9    8    7
 -0.01085015624013514   12    9    9    1
 -0.008498827891229885   12    9    9    3
 0.001427407845277961   12    9   11    7
 0.0004143339354043703   12    9   12    4
 0.04901408715734385   12    9   12    9
 0.05239177473079485   12   10    5    1
 -0.003526771956609825   12   10    5    3
 0.05166483176306817   12   10    6    2
 -0.01188412795325477   12   10    8    6
 -0.01085015624013513   12   10   10    1
 -0.008498827891229894   12   10   10    3
 0.001427407845277894   12   10   11    6
 0.0004143339354043673   12   10   12    5
 0.04901408715734387   12   10   12   10
 -0.07627863213789111   12   11    2    1
 -0.04651709613219329   12   11    3    2
 -0.0722436842319375   12   11    6    5
 -0.07224368423193754   12   11    7    4
 -0.01964406548068005   12   11    8    1
 -0.06706658766839914   12   11    8    3
 0.02306120390549171   12   11    9    7
 0.02306120390549151   12   11   10    6
 -0.01244260294056899   12   11   11    1
 -0.009630017901092467   12   11   11    3
 0.01164145494348357   12   11   12    2
 -0.01681683133576086   12   11   12    8
 0.04524184530374314   12   11   12   11
 0.4134910923846637   12   12    1    1
 0.4005455885811524   12   12    2    2
 -0.04267382321584165   12   12    3    1
 0.4006729475051194   12   12    3    3
 0.39028015518641   12   12    4    4
 0.39028015518641   12   12    5    5
 0.3905814433216685   12   12    6    6
 0.3905814433216688   12   12    7    7
 -0.04836259814128745   12   12    8    2
 0.4130571822546901   12   12    8    8
 -0.06205585937023202   12   12    9    4
 0.3714469502992903   12   12    9    9
 -0.06205585937023204   12   12   10    5
 0.3714469502992901   12   12   10   10
 0.03318041942779909   12   12   11    2
 0.05890794434308676   12   12   11    8
 0.322080254677961   12   12   11   11
 -0.05075465391461601   12   12   12    1
 -0.005587321874562516   12   12   12    3
 0.3913309070208251   12   12   12   12
 0.02083597804211223   13    1    5    2
 0.02113891547787139   13    1    6    1
 0.0007901033775594993   13    1    6    3
 -0.006463531587866338   13    1    8    5
 -0.01991879162848026   13    1   10    2
 0.003429131330449712   13    1   10    8
 0.009876456470990374   13    1   11    5
 -0.006502207475642543   13    1   11   10
 -0.01803184891581669   13    1   12    6
 0.01874085203068163   13    1   13    1
 0.02013771135338574   13    2    5    1
 0.001146650191273304   13    2    5    3
 0.02163113184895008   13    2    6    2
 -0.005488858160725699   13    2    8    6
 -0.02007905576433708   13    2   10    1
 -0.003375096565894937   13    2   10    3
 0.01194351327639984   13    2   11    6
 -0.01831944056316195   13    2   12    5
 0.01206665544774343   13    2   12   10
 0.02017124430100536   13    2   13    2
 -0.0006555202786995655   13    3    5    2
 -0.001168605813247098   13    3    6    1
 0.004289157967455155   13    3    6    3
 0.00474921168004942   13    3    8    5
 -0.00261880685941707   13    3   10    2
 -0.006777513449908739   13    3   10    8
 0.006700719902292526   13    3   11    5
 -0.00207765347808638   13    3   11   10
 -0.0006693499506110266   13    3   12    6
 0.001348002823738803   13    3   13    1
 0.006870026702414786   13    3   13    3
 0.003945445916899813   13    4    6    4
 0.003945445916899834   13    4    7    5
 -0.007307574991029423   13    4    9    6
 -0.007307574991029429   13    4   10    7
 0.007196866460602652   13    4   13    4
 0.07587116723625544   13    5    2    1
 0.01256509361416728   13    5    3    2
 0.07235680832243968   13    5    6    5
 0.06446591648864013   13    5    7    4
 -0.01883135762667072   13    5    8    1
 0.063794214966426   13    5    8    3
 -0.05277253552712705   13    5    9    7
 -0.06738768550918579   13    5   10    6
 0.02519634623087522   13    5   11    1
 0.04157783540190903   13    5   11    3
 -0.04809838077568507   13    5   12    2
 0.02725971756749185   13    5   12    8
 -0.01278167438910186   13    5   12   11
 0.06204513655197215   13    5   13    5
 0.09442363088617159   13    6    1    1
 0.09621820912895598   13    6    2    2
 -0.002907768289685241   13    6    3    1
 0.08150241673026117   13    6    3    3
 0.07952798134828826   13    6    4    4
 0.08698519282720332   13    6    5    5
 0.09222786238703903   13    6    6    6
 0.08359348167899208   13    6    7    7
 -0.0134979709082524   13    6    8    2
 0.09329409895182207   13    6    8    8
 -0.0531646340756118   13    6    9    4
 0.075150570510313   13    6    9    9
 -0.06841091405416569   13    6   10    5
 0.08107518330559058   13    6   10   10
 0.0345097575189465   13    6   11    2
 0.04135566725286374   13    6   11    8
 0.06147599664381056   13    6   11   11
 -0.04997022748561953   13    6   12    1
 0.00570525437974569   13    6   12    3
 0.07032514760605101   13    6   12   12
 0.06990888601427564   13    6   13    6
 0.003728605739457549   13    7    5    4
 0.004317190354023661   13    7    7    6
 -0.00762313998927694   13    7    9    5
 -0.00762313998927694   13    7   10    4
 0.002962306397638805   13    7   10    9
 0.007798094074240748   13    7   13    7
 -0.01044403295671841   13    8    5    1
 0.004345235377608284   13    8    5    3
 -0.0100121826079689   13    8    6    2
 0.007614149913692975   13    8    8    6
 0.004516145262165218   13    8   10    1
 -0.00611516695412556   13    8   10    3
 0.004658156260637326   13    8   11    6
 0.00459516464476829   13    8   12    5
 -0.008876962011078101   13    8   12   10
 -0.003581505342778485   13    8   13    2
 0.009666969511493616   13    8   13    8
 -0.01175268310586618   13    9    6    4
 -0.01175268310586619   13    9    7    5
 0.003951045359979158   13    9    9    6
 0.003951045359979192   13    9   10    7
 -0.002686427422757967   13    9   13    4
 0.01153759360990285   13    9   13    9
 -0.175485366300654   13   10    2    1
 -0.04923924625571961   13   10    3    2
 -0.1817187244305016   13   10    6    5
 -0.1582133582187695   13   10    7    4
 0.01867817894354787   13   10    8    1
 -0.1507789233925442   13   10    8    3
 0.07344538476669535   13   10    9    7
 0.08134747548665325   13   10   10    6
 -0.02883923271671922   13   10   11    1
 -0.04979944989190514   13   10   11    3
 0.05932546427856103   13   10   12    2
 -0.05496830121931525   13   10   12    8
 0.0633941217405601   13   10   12   11
 -0.06221972344515642   13   10   13    5
 0.1647690079428695   13   10   13   10
 0.028606923670899   13   11    5    1
 0.01100642810626913   13   11    5    3
 0.03154100928732245   13   11    6    2
 0.00596479099666342   13   11    8    6
 -0.007125874266078438   13   11   10    1
 -0.00591911100272065   13   11   10    3
 0.001785034017477434   13   11   11    6
 0.001381699421449969   13   11   12    5
 0.02397043384932267   13   11   12   10
 0.004904844978698181   13   11   13    2
 -0.00205559214484024   13   11   13    8
 0.02455625987602533   13   11   13   11
 -0.04186491390554277   13   12    5    2
 -0.04209247085798015   13   12    6    1
 -0.004473666455735849   13   12    6    3
 0.008257753655466247   13   12    8    5
 0.01585217346389802   13   12   10    2
 -0.00579855776688055   13   12   10    8
 -0.001292777837981406   13   12   11    5
 0.01981307919892994   13   12   11   10
 0.008172511517117079   13   12   12    6
 -0.01236427699612863   13   12   13    1
 0.003175879195275764   13   12   13    3
 0.03461552335620167   13   12   13   12
 0.388058184967302   13   13    1    1
 0.3886256006719046   13   13    2    2
 -0.007674344723532023   13   13    3    1
 0.3683370021428594   13   13    3    3
 0.3629533531355824   13   13    4    4
 0.3879107284879901   13   13    5    5
 0.3936624344681413   13   13    6    6
 0.3677978860821891   13   13    7    7
 -0.02076785182129702   13   13    8    2
 0.3811888390291289   13   13    8    8
 -0.06838620152437526   13   13    9    4
 0.3489505160800009   13   13    9    9
 -0.07334121818582484   13   13   10    5
 0.3745776413076446   13   13   10   10
 0.04195576681567745   13   13   11    2
 0.05565690353881159   13   13   11    8
 0.3284715767659871   13   13   11   11
 -0.05629574806948731   13   13   12    1
 0.003065135453303148   13   13   12    3
 0.3573838690896755   13   13   12   12
 0.0744926345101717   13   13   13    6
 0.3676214395876938   13   13   13   13
 0.02083597804211205   14    1    4    2
 0.02113891547787127   14    1    7    1
 0.0007901033775594836   14    1    7    3
 -0.006463531587866305   14    1    8    4
 -0.01991879162848019   14    1    9    2
 0.003429131330449699   14    1    9    8
 0.009876456470990357   14    1   11    4
 -0.006502207475642474   14    1   11    9
 -0.01803184891581669   14    1   12    7
 0.01874085203068152   14    1   14    1
 0.02013771135338555   14    2    4    1
 0.001146650191273292   14    2    4    3
 0.02163113184894993   14    2    7    2
 -0.00548885816072568   14    2    8    7
 -0.02007905576433702   14    2    9    1
 -0.003375096565894908   14    2    9    3
 0.01194351327639984   14    2   11    7
 -0.01831944056316193   14    2   12    4
 0.0120666554477433   14    2   12    9
 0.02017124430100525   14    2   14    2
 -0.0006555202786995885   14    3    4    2
 -0.001168605813247113   14    3    7    1
 0.004289157967455132   14    3    7    3
 0.00474921168004938   14    3    8    4
 -0.002618806859417058   14    3    9    2
 -0.006777513449908727   14    3    9    8
 0.006700719902292518   14    3   11    4
 -0.002077653478086347   14    3   11    9
 -0.0006693499506110243   14    3   12    7
 0.001348002823738808   14    3   14    1
 0.006870026702414765   14    3   14    3
 0.07587116723625485   14    4    2    1
 0.01256509361416713   14    4    3    2
 0.0644659164886395   14    4    6    5
 0.07235680832243922   14    4    7    4
 -0.01883135762667065   14    4    8    1
 0.06379421496642551   14    4    8    3
 -0.06738768550918568   14    4    9    7
 -0.05277253552712669   14    4   10    6
 0.02519634623087515   14    4   11    1
 0.04157783540190889   14    4   11    3
 -0.0480983807756849   14    4   12    2
 0.02725971756749168   14    4   12    8
 -0.01278167438910167   14    4   12   11
 0.04765140363076664   14    4   13    5
 -0.05684686859964003   14    4   13   10
 0.06204513655197173   14    4   14    4
 0.003945445916899766   14    5    6    4
 0.003945445916899787   14    5    7    5
 -0.007307574991029408   14    5    9    6
 -0.007307574991029415   14    5   10    7
 0.007196866460602642   14    5   13    4
 -0.00268642742275793   14    5   13    9
 0.007196866460602634   14    5   14    5
 0.003728605739457464   14    6    5    4
 0.004317190354023573   14    6    7    6
 -0.007623139989276922   14    6    9    5
 -0.007623139989276922   14    6   10    4
 0.00296230639763873   14    6   10    9
 0.007798094074240734   14    6   13    7