 &FCI NORB=  26,NELEC=10,MS2=0,
  ORBSYM=1,1,1,1,1,1,1,1,1,1,1,1,1,1,1,1,1,1,1,1,1,1,1,1,1,1
  ISYM=1,
 &END
 0.4355948248679077    1    1    1    1
 0.2585454247161829    2    1    2    1
 0.4364687142753287    2    2    1    1
 0.4387278999810592    2    2    2    2
 -0.009790774131142665    3    1    1    1
 -0.0003278030866627463    3    1    2    2
 0.06848776808876289    3    1    3    1
 0.03579628337164967    3    2    2    1
 0.06338061339307845    3    2    3    2
 0.4106179128147579    3    3    1    1
 0.4103253062240507    3    3    2    2
 -0.01117073734211252    3    3    3    1
 0.4138206609059563    3    3    3    3
 0.06725709033114934    4    1    4    1
 0.06460955688095142    4    2    4    2
 0.0009644624718417888    4    3    4    1
 0.01633655871977502    4    3    4    3
 0.4107949839828164    4    4    1    1
 0.4117530505854603    4    4    2    2
 -0.008086234688130937    4    4    3    1
 0.3793654430592824    4    4    3    3
 0.4119962535751241    4    4    4    4
 0.06725709033114935    5    1    5    1
 0.06460955688095144    5    2    5    2
 0.0009644624718417888    5    3    5    1
 0.01633655871977501    5    3    5    3
 0.01630970637358556    5    4    5    4
 0.4107949839828164    5    5    1    1
 0.4117530505854603    5    5    2    2
 -0.008086234688130939    5    5    3    1
 0.3793654430592824    5    5    3    3
 0.3793768408279529    5    5    4    4
 0.4119962535751241    5    5    5    5
 0.06464305115256271    6    1    5    2
 0.06470459005178586    6    1    6    1
 0.06813122762778519    6    2    5    1
 0.00253242487421142    6    2    5    3
 0.06919066001289373    6    2    6    2
 0.004443600114000611    6    3    5    2
 0.003794846929006035    6    3    6    1
 0.01558884126293047    6    3    6    3
 0.01640776566615671    6    4    6    4
 0.2375980331173303    6    5    2    1
 0.03094653034396956    6    5    3    2
 0.2422891736856902    6    5    6    5
 0.4137418744757145    6    6    1    1
 0.4150973772150544    6    6    2    2
 -0.005807465411073963    6    6    3    1
 0.3812128288506156    6    6    3    3
 0.3818719562726153    6    6    4    4
 0.4150316533034394    6    6    5    5
 0.4182776130519143    6    6    6    6
 0.06464305115256262    7    1    4    2
 0.06470459005178573    7    1    7    1
 0.0681312276277851    7    2    4    1
 0.002532424874211415    7    2    4    3
 0.06919066001289359    7    2    7    2
 0.004443600114000607    7    3    4    2
 0.003794846929006028    7    3    7    1
 0.01558884126293044    7    3    7    3
 0.23759803311733    7    4    2    1
 0.03094653034396954    7    4    3    2
 0.2094736423533766    7    4    6    5
 0.2422891736856897    7    4    7    4
 0.0164077656661567    7    5    6    4
 0.01640776566615669    7    5    7    5
 0.01657984851541203    7    6    5    4
 0.01687436594645293    7    6    7    6
 0.413741874475714    7    7    1    1
 0.4150973772150537    7    7    2    2
 -0.005807465411073976    7    7    3    1
 0.3812128288506152    7    7    3    3
 0.4150316533034389    7    7    4    4
 0.3818719562726148    7    7    5    5
 0.3845288811590079    7    7    6    6
 0.4182776130519132    7    7    7    7
 -0.006112006622183148    8    1    2    1
 0.06095431184302634    8    1    3    2
 -0.007354028281328292    8    1    6    5
 -0.00735402828132827    8    1    7    4
 0.06557784792273165    8    1    8    1
 -0.01907221986038089    8    2    1    1
 -0.009871544854336174    8    2    2    2
 0.06904174824854349    8    2    3    1
 -0.01495801082713226    8    2    3    3
 -0.01740034522554383    8    2    4    4
 -0.01740034522554383    8    2    5    5
 -0.01546331391122959    8    2    6    6
 -0.01546331391122956    8    2    7    7
 0.07117708220613925    8    2    8    2
 0.2299923284417072    8    3    2    1
 0.03125129318431609    8    3    3    2
 0.2025920771253847    8    3    6    5
 0.2025920771253845    8    3    7    4
 -0.006493768006681164    8    3    8    1
 0.2271275327142409    8    3    8    3
 -0.003796805170354866    8    4    4    2
 -0.004482446215761852    8    4    7    1
 0.01580122241128325    8    4    7    3
 0.01714673284623897    8    4    8    4
 -0.003796805170354865    8    5    5    2
 -0.004482446215761858    8    5    6    1
 0.01580122241128326    8    5    6    3
 0.01714673284623897    8    5    8    5
 -0.005336031796282947    8    6    5    1
 0.01655358013234848    8    6    5    3
 -0.003915177715153041    8    6    6    2
 0.01772408490258295    8    6    8    6
 -0.005336031796282939    8    7    4    1
 0.01655358013234847    8    7    4    3
 -0.003915177715153028    8    7    7    2
 0.01772408490258291    8    7    8    7
 0.4250782335083654    8    8    1    1
 0.4248886738911448    8    8    2    2
 -0.01467830021911543    8    8    3    1
 0.4238646802799521    8    8    3    3
 0.3916042684384556    8    8    4    4
 0.3916042684384556    8    8    5    5
 0.3939185017269415    8    8    6    6
 0.393918501726941    8    8    7    7
 -0.02083992452364835    8    8    8    2
 0.4393079146980571    8    8    8    8
 -0.0355976224497979    9    1    1    1
 -0.03407293372089538    9    1    2    2
 0.0201385685222    9    1    3    1
 -0.02349369327945121    9    1    3    3
 -0.03113005571020418    9    1    4    4
 -0.03113005571020418    9    1    5    5
 -0.03186506501545974    9    1    6    6
 -0.0318650650154596    9    1    7    7
 0.02558599645522594    9    1    8    2
 -0.03466364003887587    9    1    8    8
 0.03060640057242468    9    1    9    1
 -0.03829582257697024    9    2    2    1
 0.0215213128379485    9    2    3    2
 -0.03527023028595474    9    2    6    5
 -0.03527023028595468    9    2    7    4
 0.02984918903034816    9    2    8    1
 -0.03304037018140658    9    2    8    3
 0.02758526043016112    9    2    9    2
 0.07158632454952613    9    3    1    1
 0.07483010972149466    9    3    2    2
 0.009517457002075808    9    3    3    1
 0.05938103270391763    9    3    3    3
 0.05979343252109843    9    3    4    4
 0.05979343252109843    9    3    5    5
 0.06225178915952366    9    3    6    6
 0.0622517891595234    9    3    7    7
 0.002190008304757038    9    3    8    2
 0.07504797186202659    9    3    8    8
 -0.03017141433486818    9    3    9    1
 0.06356092309627112    9    3    9    3
 -0.005509906369700286    9    4    4    1
 0.003568160084018886    9    4    4    3
 -0.005676645424162596    9    4    7    2
 0.005797037367979653    9    4    8    7
 0.01159316625388704    9    4    9    4
 -0.005509906369700285    9    5    5    1
 0.003568160084018886    9    5    5    3
 -0.005676645424162616    9    5    6    2
 0.005797037367979674    9    5    8    6
 0.01159316625388704    9    5    9    5
 -0.00797907283533297    9    6    5    2
 -0.008219134000335391    9    6    6    1
 0.005081377143286079    9    6    6    3
 0.006849015602865743    9    6    8    5
 0.00996292586567623    9    6    9    6
 -0.007979072835332918    9    7    4    2
 -0.008219134000335316    9    7    7    1
 0.00508137714328604    9    7    7    3
 0.006849015602865713    9    7    8    4
 0.009962925865676195    9    7    9    7
 0.1138085772199418    9    8    2    1
 0.004398577717207437    9    8    3    2
 0.09849661673693598    9    8    6    5
 0.09849661673693583    9    8    7    4
 -0.01591018154920463    9    8    8    1
 0.1087146144291495    9    8    8    3
 -0.0318673278854732    9    8    9    2
 0.07944553330397029    9    8    9    8
 0.4035429268255234    9    9    1    1
 0.3966330424741653    9    9    2    2
 -0.05732845808441278    9    9    3    1
 0.4043943682122719    9    9    3    3
 0.3774198433730201    9    9    4    4
 0.37741984337302    9    9    5    5
 0.377396845893566    9    9    6    6
 0.3773968458935655    9    9    7    7
 -0.06099099282881372    9    9    8    2
 0.4131672976754883    9    9    8    8
 -0.03433684738141692    9    9    9    1
 0.04603151313362169    9    9    9    3
 0.4474570669289319    9    9    9    9
 -0.02240015296557751   10    1    4    1
 -0.002076845318338472   10    1    4    3
 -0.02326683948556432   10    1    7    2
 0.001397775980057537   10    1    8    7
 0.009644716665612686   10    1    9    4
 0.02095276041420795   10    1   10    1
 -0.0247326530448848   10    2    4    2
 -0.02473847071001864   10    2    7    1
 -0.001900556069257814   10    2    7    3
 0.001833564706541496   10    2    8    4
 0.008514688280451835   10    2    9    7
 0.02113707568226476   10    2   10    2
 -0.004284901938895956   10    3    4    1
 -0.003229379133330565   10    3    4    3
 -0.004389889499716438   10    3    7    2
 -0.00388765856479504   10    3    8    7
 -0.007194506277029345   10    3    9    4
 0.0007225257512627526   10    3   10    1
 0.008278798224943018   10    3   10    3
 -0.09194113807010461   10    4    1    1
 -0.09407620841290119   10    4    2    2
 -0.004052139044159149   10    4    3    1
 -0.07392917062248612   10    4    3    3
 -0.08675151207607845   10    4    4    4
 -0.07783528513906124   10    4    5    5
 -0.07982753218333462   10    4    6    6
 -0.08926529201882209   10    4    7    7
 0.002511472999978189   10    4    8    2
 -0.08354595612680293   10    4    8    8
 0.02517518016382838   10    4    9    1
 -0.04733027213698484   10    4    9    3
 -0.07163969999717584   10    4    9    9
 0.06914746972215081   10    4   10    4
 -0.004458113468508599   10    5    5    4
 -0.004718879917743899   10    5    7    6
 0.007621028954203443   10    5   10    5
 -0.004938186994169393   10    6    6    4
 -0.004938186994169373   10    6    7    5
 0.007571156826257894   10    6   10    6
 -0.09426817527501884   10    7    2    1
 -0.009806553484706786   10    7    3    2
 -0.07993692613608164   10    7    6    5
 -0.08981330012442017   10    7    7    4
 0.006485121582684451   10    7    8    1
 -0.0782450420265729   10    7    8    3
 0.02346726634912327   10    7    9    2
 -0.05829298761855683   10    7    9    8
 0.07121879320231937   10    7   10    7
 0.002389179273240794   10    8    4    2
 0.002603484275256342   10    8    7    1
 -0.004928361330636888   10    8    7    3
 -0.005701013536089651   10    8    8    4
 -0.007291660611459968   10    8    9    7
 -0.0009948749966030344   10    8   10    2
 0.007817917638450201   10    8   10    8
 0.02496001509605608   10    9    4    1
 -0.01143956582821958   10    9    4    3
 0.02400354741425496   10    9    7    2
 -0.01338503052328169   10    9    8    7
 -0.002846273940716268   10    9    9    4
 -0.005174241349258499   10    9   10    1
 -0.0002070800130761981   10    9   10    3
 0.02238207572738903   10    9   10    9
 0.3740574943861535   10   10    1    1
 0.3745831124006483   10   10    2    2
 -0.008368158091810478   10   10    3    1
 0.3510079468074184   10   10    3    3
 0.3747136240255155   10   10    4    4
 0.3501220884427522   10   10    5    5
 0.3521586599330018   10   10    6    6
 0.3770446349861162   10   10    7    7
 -0.01572709961950029   10   10    8    2
 0.3608857196314487   10   10    8    8
 -0.0265253490666357   10   10    9    1
 0.05196384987224987   10   10    9    3
 0.3582410078898978   10   10    9    9
 -0.07591549595750526   10   10   10    4
 0.3575675100014941   10   10   10   10
 -0.02240015296557751   11    1    5    1
 -0.002076845318338471   11    1    5    3
 -0.02326683948556438   11    1    6    2
 0.001397775980057543   11    1    8    6
 0.009644716665612682   11    1    9    5
 0.02095276041420795   11    1   11    1
 -0.02473265304488479   11    2    5    2
 -0.02473847071001869   11    2    6    1
 -0.001900556069257817   11    2    6    3
 0.001833564706541497   11    2    8    5
 0.00851468828045185   11    2    9    6
 0.02113707568226476   11    2   11    2
 -0.004284901938895954   11    3    5    1
 -0.003229379133330566   11    3    5    3
 -0.004389889499716439   11    3    6    2
 -0.003887658564795062   11    3    8    6
 -0.007194506277029347   11    3    9    5
 0.0007225257512627516   11    3   11    1
 0.008278798224943018   11    3   11    3
 -0.004458113468508599   11    4    5    4
 -0.004718879917743899   11    4    7    6
 0.007621028954203443   11    4   10    5
 0.007621028954203443   11    4   11    4
 -0.09194113807010464   11    5    1    1
 -0.09407620841290119   11    5    2    2
 -0.004052139044159147   11    5    3    1
 -0.07392917062248609   11    5    3    3
 -0.07783528513906121   11    5    4    4
 -0.08675151207607845   11    5    5    5
 -0.08926529201882247   11    5    6    6
 -0.0798275321833343   11    5    7    7
 0.002511472999978192   11    5    8    2
 -0.08354595612680296   11    5    8    8
 0.02517518016382838   11    5    9    1
 -0.04733027213698485   11    5    9    3
 -0.07163969999717584   11    5    9    9
 0.05390541181374398   11    5   10    4
 -0.06993277826759255   11    5   10   10
 0.06914746972215084   11    5   11    5
 -0.09426817527501938   11    6    2    1
 -0.009806553484706855   11    6    3    2
 -0.0898133001244209   11    6    6    5
 -0.07993692613608194   11    6    7    4
 0.006485121582684467   11    6    8    1
 -0.07824504202657336   11    6    8    3
 0.02346726634912335   11    6    9    2
 -0.05829298761855706   11    6    9    8
 0.05607647954980385   11    6   10    7
 0.07121879320231983   11    6   11    6
 -0.004938186994169362   11    7    6    4
 -0.004938186994169342   11    7    7    5
 0.007571156826257883   11    7   10    6
 0.007571156826257874   11    7   11    7
 0.002389179273240796   11    8    5    2
 0.002603484275256349   11    8    6    1
 -0.004928361330636908   11    8    6    3
 -0.005701013536089651   11    8    8    5
 -0.007291660611459982   11    8    9    6
 -0.0009948749966030353   11    8   11    2
 0.007817917638450203   11    8   11    8
 0.02496001509605608   11    9    5    1
 -0.01143956582821958   11    9    5    3
 0.02400354741425498   11    9    6    2
 -0.01338503052328171   11    9    8    6
 -0.002846273940716273   11    9    9    5
 -0.005174241349258498   11    9   11    1
 -0.0002070800130761967   11    9   11    3
 0.02238207572738903   11    9   11    9
 0.01229576779138156   11   10    5    4
 0.01244298752655743   11   10    7    6
 -0.002991358844956338   11   10   10    5
 -0.002991358844956338   11   10   11    4
 0.01245403874262946   11   10   11   10
 0.3740574943861535   11   11    1    1
 0.3745831124006483   11   11    2    2
 -0.00836815809181048   11   11    3    1
 0.3510079468074185   11   11    3    3
 0.3501220884427523   11   11    4    4
 0.3747136240255154   11   11    5    5
 0.3770446349861167   11   11    6    6
 0.3521586599330014   11   11    7    7
 -0.01572709961950028   11   11    8    2
 0.3608857196314486   11   11    8    8
 -0.0265253490666357   11   11    9    1
 0.05196384987224989   11   11    9    3
 0.3582410078898977   11   11    9    9
 -0.06993277826759259   11   11   10    4
 0.332659432516235   11   11   10   10
 -0.07591549595750527   11   11   11    5
 0.3575675100014939   11   11   11   11
 0.02237636061847302   12    1    5    2
 0.02241546751467748   12    1    6    1
 0.0009145634396355986   12    1    6    3
 -0.00257988456355313   12    1    8    5
 -0.008864103188189646   12    1    9    6
 -0.02041070782574193   12    1   11    2
 0.001479653298600928   12    1   11    8
 0.01983462193182313   12    1   12    1
 0.02181796925953332   12    2    5    1
 0.001245972595588577   12    2    5    3
 0.02256114793899685   12    2    6    2
 -0.00204367344523505   12    2    8    6
 -0.009064831926094741   12    2    9    5
 -0.02067198583146513   12    2   11    1
 -0.001365367200131758   12    2   11    3
 0.005822565740126629   12    2   11    9
 0.02055851549075922   12    2   12    2
 0.0009395814428488727   12    3    5    2
 0.000772059539115739   12    3    6    1
 0.004098668807762092   12    3    6    3
 0.004326193934991882   12    3    8    5
 0.005765371537945999   12    3    9    6
 -0.00149875730425967   12    3   11    2
 -0.007142541024221043   12    3   11    8
 0.0009717497769996353   12    3   12    1
 0.006880883127504837   12    3   12    3
 0.004305435692993328   12    4    6    4
 0.004305435692993308   12    4    7    5
 -0.007490466933094672   12    4   10    6
 -0.007490466933094663   12    4   11    7
 0.007442671708125342   12    4   12    4
 0.08526268238605794   12    5    2    1
 0.007179081036975277   12    5    3    2
 0.08053930275176512   12    5    6    5
 0.07192843136577828   12    5    7    4
 -0.007759863616990034   12    5    8    1
 0.07060319881115946   12    5    8    3
 -0.02289253093011721   12    5    9    2
 0.05512099675766477   12    5    9    8
 -0.05351550619841366   12    5   10    7
 -0.06849644006460325   12    5   11    6
 0.06618766466143429   12    5   12    5
 0.09189489816382612   12    6    1    1
 0.09359093541461608   12    6    2    2
 0.001302335497935402   12    6    3    1
 0.07482058587058542   12    6    3    3
 0.07782104282651497   12    6    4    4
 0.08625255110773775   12    6    5    5
 0.08857545285491582   12    6    6    6
 0.07967159593173148   12    6    7    7
 -0.00500874344220984   12    6    8    2
 0.08405609858719754   12    6    8    8
 -0.02498164234466263   12    6    9    1
 0.04583779040780616   12    6    9    3
 0.07520936081983484   12    6    9    9
 -0.05367044999273822   12    6   10    4
 0.07038015284328557   12    6   10   10
 -0.06892810806623305   12    6   11    5
 0.07622179623685862   12    6   11   11
 0.06900878864023637   12    6   12    6
 0.004215754140611348   12    7    5    4
 0.00445192846159194   12    7    7    6
 -0.007628829036747401   12    7   10    5
 -0.007628829036747401   12    7   11    4
 0.002920821696786515   12    7   11   10
 0.007680123990601364   12    7   12    7
 -0.003492971871505733   12    8    5    1
 0.004159599134911538   12    8    5    3
 -0.003334143372147828   12    8    6    2
 0.00534688140534435   12    8    8    6
 0.007705328215890854   12    8    9    5
 0.001966411811869817   12    8   11    1
 -0.007453345645170092   12    8   11    3
 -0.004334353249046827   12    8   11    9
 -0.001461659515752877   12    8   12    2
 0.007993281028879726   12    8   12    8
 -0.01976306420499712   12    9    5    2
 -0.02021596800731473   12    9    6    1
 0.008595661638223361   12    9    6    3
 0.01159024219175558   12    9    8    5
 0.006514737778662178   12    9    9    6
 0.00711744599210298   12    9   11    2
 -0.004941758044623323   12    9   11    8
 -0.00689834256481908   12    9   12    1
 0.003023970248493402   12    9   12    3
 0.01554055826891477   12    9   12    9
 -0.01211442038474868   12   10    6    4
 -0.01211442038474867   12   10    7    5
 0.003345142463555664   12   10   10    6
 0.003345142463555632   12   10   11    7
 -0.002849063536142596   12   10   12    4
 0.0120520894927936   12   10   12   10
 -0.2000470934431066   12   11    2    1
 -0.02753558848816463   12   11    3    2
 -0.2039597210230293   12   11    6    5
 -0.1797308802535318   12   11    7    4
 0.004840827624222317   12   11    8    1
 -0.1734775738736285   12   11    8    3
 0.03062610326433115   12   11    9    2
 -0.08667215237831144   12   11    9    8
 0.07037028830578919   12   11   10    7
 0.07706057323290094   12   11   11    6
 -0.06914356743863921   12   11   12    5
 0.1863957119462137   12   11   12   11
 0.3709802928875258   12   12    1    1
 0.371876601120984   12   12    2    2
 -0.006217837919591763   12   12    3    1
 0.3470153463435279   12   12    3    3
 0.3475811994123142   12   12    4    4
 0.3723747474345916   12   12    5    5
 0.3748777906045589   12   12    6    6
 0.3497451392379336   12   12    7    7
 -0.0138917452580284   12   12    8    2
 0.3575932130830057   12   12    8    8
 -0.02725282632208243   12   12    9    1
 0.05344915642742123   12   12    9    3
 0.3516890946944665   12   12    9    9
 -0.06909545867932887   12   12   10    4
 0.3301466877869478   12   12   10   10
 -0.07461736748841126   12   12   11    5
 0.3552353312793016   12   12   11   11
 0.07454028338943436   12   12   12    6
 0.3535780928879918   12   12   12   12
 0.02237636061847319   13    1    4    2
 0.02241546751467759   13    1    7    1
 0.0009145634396356044   13    1    7    3
 -0.002579884563553143   13    1    8    4
 -0.008864103188189643   13    1    9    7
 -0.02041070782574199   13    1   10    2
 0.001479653298600933   13    1   10    8
 0.01983462193182324   13    1   13    1
 0.0218179692595335   13    2    4    1
 0.001245972595588583   13    2    4    3
 0.02256114793899697   13    2    7    2
 -0.002043673445235057   13    2    8    7
 -0.009064831926094759   13    2    9    4
 -0.02067198583146518   13    2   10    1
 -0.00136536720013177   13    2   10    3
 0.005822565740126693   13    2   10    9
 0.02055851549075934   13    2   13    2
 0.0009395814428488829   13    3    4    2
 0.0007720595391157451   13    3    7    1
 0.004098668807762115   13    3    7    3
 0.004326193934991926   13    3    8    4
 0.005765371537946005   13    3    9    7
 -0.001498757304259675   13    3   10    2
 -0.007142541024221057   13    3   10    8
 0.0009717497769996393   13    3   13    1
 0.00688088312750486   13    3   13    3
 0.08526268238605859   13    4    2    1
 0.007179081036975356   13    4    3    2
 0.07192843136577899   13    4    6    5
 0.08053930275176557   13    4    7    4
 -0.007759863616990058   13    4    8    1
 0.07060319881115999   13    4    8    3
 -0.0228925309301173   13    4    9    2
 0.05512099675766503   13    4    9    8
 -0.06849644006460323   13    4   10    7
 -0.05351550619841406   13    4   11    6
 0.05130232124518373   13    4   12    5
 -0.06344544036635449   13    4   12   11
 0.06618766466143464   13    4   13    4
 0.004305435692993373   13    5    6    4
 0.004305435692993353   13    5    7    5
 -0.007490466933094688   13    5   10    6
 -0.00749046693309468   13    5   11    7
 0.007442671708125354   13    5   12    4
 -0.00284906353614263   13    5   12   10
 0.007442671708125366   13    5   13    5
 0.004215754140611423   13    6    5    4
 0.004451928461592018   13    6    7    6
 -0.007628829036747423   13    6   10    5
 -0.007628829036747423   13    6   11    4
 0.002920821696786583   13    6   11   10
 0.007680123990601387   13    6   12    7
 0.007680123990601406   13    6   13    6
 0.09189489816382623   13    7    1    1
 0.09359093541461622   13    7    2    2
 0.0013023354979354   13    7    3    1
 0.0748205858705855   13    7    3    3
 0.08625255110773787   13    7    4    4
 0.07782104282651509   13    7    5    5
 0.07967159593173191   13    7    6    6
 0.08857545285491554   13    7    7    7
 -0.005008743442209846   13    7    8    2
 0.08405609858719762   13    7    8    8
 -0.02498164234466263   13    7    9    1
 0.04583779040780618   13    7    9    3
 0.07520936081983498   13    7    9    9
 -0.06892810806623308   13    7   10    4
 0.07622179623685871   13    7   10   10
 -0.05367044999273825   13    7   11    5
 0.07038015284328561   13    7   11   11
 0.05364854065903361   13    7   12    6
 0.06927609413744737   13    7   12   12
 0.06900878864023639   13    7   13    7
 -0.003492971871505749   13    8    4    1
 0.004159599134911582   13    8    4    3
 -0.003334143372147835   13    8    7    2
 0.005346881405344375   13    8    8    7
 0.00770532821589087   13    8    9    4
 0.00196641181186982   13    8   10    1
 -0.007453345645170104   13    8   10    3
 -0.004334353249046864   13    8   10    9
 -0.001461659515752891   13    8   13    2
 0.007993281028879756   13    8   13    8
 -0.01976306420499714   13    9    4    2
 -0.02021596800731474   13    9    7    1
 0.008595661638223364   13    9    7    3
 0.0115902421917556   13    9    8    4
 0.006514737778662161   13    9    9    7
 0.007117445992102997   13    9   10    2
 -0.004941758044623344   13    9   10    8
 -0.006898342564819157   13    9   13    1
 0.003023970248493444   13    9   13    3
 0.0155405582689148   13    9   13    9
 -0.200047093443107   13   10    2    1
 -0.02753558848816466   13   10    3    2
 -0.1797308802535321   13   10    6    5
 -0.2039597210230294   13   10    7    4
 0.004840827624222337   13   10    8    1
 -0.1734775738736287   13   10    8    3
 0.03062610326433123   13   10    9    2
 -0.08667215237831156   13   10    9    8
 0.07706057323290065   13   10   10    7
 0.07037028830578976   13   10   11    6
 -0.06344544036635416   13   10   12    5
 0.1622915329606266   13   10   12   11
 -0.06914356743863992   13   10   13    4
 0.1863957119462143   13   10   13   10
 -0.0121144203847487   13   11    6    4
 -0.01211442038474869   13   11    7    5
 0.003345142463555686   13   11   10    6
 0.003345142463555655   13   11   11    7
 -0.002849063536142617   13   11   12    4
 0.01205208949279361   13   11   12   10
 -0.00284906353614265   13   11   13    5
 0.01205208949279362   13   11   13   11
 0.01239677401113869   13   12    5    4
 0.01256632568331244   13   12    7    6
 -0.002760954404541192   13   12   10    5
 -0.002760954404541192   13   12   11    4
 0.01254432174617684   13   12   11   10
 0.002632094625993484   13   12   12    7
 0.002632094625993551   13   12   13    6
 0.01274814182646924   13   12   13   12
 0.3709802928875264   13   13    1    1
 0.3718766011209845   13   13    2    2
 -0.006217837919591758   13   13    3    1
 0.3470153463435284   13   13    3    3
 0.3723747474345922   13   13    4    4
 0.3475811994123147   13   13    5    5
 0.3497451392379345   13   13    6    6
 0.3748777906045589   13   13    7    7
 -0.01389174525802843   13   13    8    2
 0.3575932130830062   13   13    8    8
 -0.02725282632208258   13   13    9    1
 0.05344915642742149   13   13    9    3
 0.3516890946944671   13   13    9    9
 -0.07461736748841161   13   13   10    4
 0.3552353312793021   13   13   10   10
 -0.06909545867932913   13   13   11    5
 0.3301466877869482   13   13   11   11
 0.06927609413744756   13   13   12    6
 0.3280818092350536   13   13   12   12
 0.07454028338943475   13   13   13    7
 0.3535780928879928   13   13   13   13
 -0.05066000717625962   14    1    2    1
 -0.02038982449943741   14    1    3    2
 -0.04345639049153477   14    1    6    5
 -0.04345639049153468   14    1    7    4
 -0.01262264670783638   14    1    8    1
 -0.04090834409147533   14    1    8    3
 0.0005729772035474223   14    1    9    2
 -0.02896286098077639   14    1    9    8
 0.03548045307544269   14    1   10    7
 0.03548045307544279   14    1   11    6
 -0.03383746643623271   14    1   12    5
 0.03774175007821267   14    1   12   11
 -0.03383746643623282   14    1   13    4
 0.03774175007821277   14    1   13   10
 0.03115262658700101   14    1   14    1
 -0.0584279482637791   14    2    1    1
 -0.06149320174891944   14    2    2    2
 -0.01719984070776873   14    2    3    1
 -0.04952100536131786   14    2    3    3
 -0.05108435758958339   14    2    4    4
 -0.05108435758958339   14    2    5    5
 -0.0525931951351595   14    2    6    6
 -0.05259319513515928   14    2    7    7
 -0.01452986756449097   14    2    8    2
 -0.05165902133034635   14    2    8    8
 0.002088598126960203   14    2    9    1
 -0.02734764140145936   14    2    9    3
 -0.04029863746124171   14    2    9    9
 0.03754718168686916   14    2   10    4
 -0.04619175200546482   14    2   10   10
 0.03754718168686917   14    2   11    5
 -0.04619175200546481   14    2   11   11
 -0.03746337518171018   14    2   12    6
 -0.04480406260149908   14    2   12   12
 -0.03746337518171019   14    2   13    7
 -0.04480406260149929   14    2   13   13
 0.0361058787259745   14    2   14    2
 -0.06031445361593302   14    3    2    1
 -0.01096089877524041   14    3    3    2
 -0.05049190878329278   14    3    6    5
 -0.05049190878329266   14    3    7    4
 -0.0008095976017810481   14    3    8    1
 -0.0550156512127041   14    3    8    3
 0.005283598535036346   14    3    9    2
 -0.04268761843328831   14    3    9    8
 0.0391202744057513   14    3   10    7
 0.03912027440575143   14    3   11    6
 -0.03747158103711711   14    3   12    5
 0.04421374078753419   14    3   12   11
 -0.03747158103711724   14    3   13    4
 0.04421374078753427   14    3   13   10
 0.03326370361218653   14    3   14    1
 0.04379367100871707   14    3   14    3
 -0.007151587142184709   14    4    4    2
 -0.007035007680355213   14    4    7    1
 -0.00338115018218855   14    4    7    3
 -0.002233515448589055   14    4    8    4
 0.001166353198086019   14    4    9    7
 0.01281744082779405   14    4   10    2
 0.004705418815537418   14    4   10    8
 -0.0123593870887483   14    4   13    1
 -0.005801787073067721   14    4   13    3
 -0.0007230773539659188   14    4   13    9
 0.01286400718019338   14    4   14    4
 -0.007151587142184712   14    5    5    2
 -0.007035007680355246   14    5    6    1
 -0.003381150182188565   14    5    6    3
 -0.002233515448589055   14    5    8    5
 0.001166353198086017   14    5    9    6
 0.01281744082779405   14    5   11    2
 0.004705418815537418   14    5   11    8
 -0.01235938708874828   14    5   12    1
 -0.005801787073067713   14    5   12    3
 -0.0007230773539659203   14    5   12    9
 0.01286400718019338   14    5   14    5
 -0.006341548460948852   14    6    5    1
 -0.003692389544803977   14    6    5    3
 -0.006951965432729119   14    6    6    2
 -0.002609296110986886   14    6    8    6
 0.001700230576744453   14    6    9    5
 0.01294720013406799   14    6   11    1
 0.00558294647077919   14    6   11    3
 0.001732082093534325   14    6   11    9
 -0.01327323708543796   14    6   12    2
 -0.004708424858277762   14    6   12    8
 0.01358382591563382   14    6   14    6
 -0.006341548460948764   14    7    4    1
 -0.003692389544803953   14    7    4    3
 -0.006951965432728994   14    7    7    2
 -0.002609296110986856   14    7    8    7
 0.001700230576744459   14    7    9    4