 &FCI NORB=  26,NELEC=10,MS2=0,
  ORBSYM=1,1,1,1,1,1,1,1,1,1,1,1,1,1,1,1,1,1,1,1,1,1,1,1,1,1
  ISYM=1,
 &END
 0.4808884663210664    1    1    1    1
 0.211903537810725    2    1    2    1
 0.4670819029114311    2    2    1    1
 0.4740393682055005    2    2    2    2
 -0.03539751871382673    3    1    1    1
 0.004880282617360707    3    1    2    2
 0.07941683464042863    3    1    3    1
 0.08019101513094558    3    2    2    1
 0.08355333345146299    3    2    3    2
 0.4615735424705213    3    3    1    1
 0.4555073981591    3    3    2    2
 -0.01764719416332947    3    3    3    1
 0.4708677664182987    3    3    3    3
 0.06913907904235693    4    1    4    1
 0.06040525935210455    4    2    4    2
 0.0009818735573083022    4    3    4    1
 0.01875442474462342    4    3    4    3
 0.4460914744544111    4    4    1    1
 0.4392524425661642    4    4    2    2
 -0.02092259933476639    4    4    3    1
 0.4212091744150167    4    4    3    3
 0.4414867882331201    4    4    4    4
 0.06913907904235692    5    1    5    1
 0.06040525935210455    5    2    5    2
 0.0009818735573083024    5    3    5    1
 0.01875442474462342    5    3    5    3
 0.01632415095248371    5    4    5    4
 0.446091474454411    5    5    1    1
 0.4392524425661642    5    5    2    2
 -0.02092259933476639    5    5    3    1
 0.4212091744150167    5    5    3    3
 0.4088384863281528    5    5    4    4
 0.4414867882331201    5    5    5    5
 0.06009565891572682    6    1    5    2
 0.06011220192392897    6    1    6    1
 0.06967256406672934    6    2    5    1
 0.008193158716929725    6    2    5    3
 0.07323925796454198    6    2    6    2
 0.01364762301100243    6    3    5    2
 0.0114295674024777    6    3    6    1
 0.01758148198264117    6    3    6    3
 0.01604520958596539    6    4    6    4
 0.1984404818365303    6    5    2    1
 0.07100983038257651    6    5    3    2
 0.2091279664492936    6    5    6    5
 0.4499528454697246    6    6    1    1
 0.4492915067319204    6    6    2    2
 -0.009809170927133569    6    6    3    1
 0.4254950400157365    6    6    3    3
 0.4131695915945682    6    6    4    4
 0.4468406784671907    6    6    5    5
 0.455525512173668    6    6    6    6
 0.06009565891572683    7    1    4    2
 0.06011220192392901    7    1    7    1
 0.06967256406672935    7    2    4    1
 0.008193158716929728    7    2    4    3
 0.07323925796454202    7    2    7    2
 0.01364762301100243    7    3    4    2
 0.0114295674024777    7    3    7    1
 0.01758148198264118    7    3    7    3
 0.1984404818365303    7    4    2    1
 0.07100983038257651    7    4    3    2
 0.1770375472773629    7    4    6    5
 0.2091279664492937    7    4    7    4
 0.0160452095859654    7    5    6    4
 0.0160452095859654    7    5    7    5
 0.01683554343631118    7    6    5    4
 0.0178199979588358    7    6    7    6
 0.4499528454697248    7    7    1    1
 0.4492915067319206    7    7    2    2
 -0.009809170927133574    7    7    3    1
 0.4254950400157367    7    7    3    3
 0.4468406784671908    7    7    4    4
 0.4131695915945685    7    7    5    5
 0.4198855162559966    7    7    6    6
 0.4555255121736684    7    7    7    7
 -0.03382438197818376    8    1    2    1
 0.04467519983272684    8    1    3    2
 -0.03494436600909488    8    1    6    5
 -0.0349443660090949    8    1    7    4
 0.06794011338246579    8    1    8    1
 -0.04641151425469993    8    2    1    1
 -0.01200094374580905    8    2    2    2
 0.07052228604181286    8    2    3    1
 -0.01807904991564162    8    2    3    3
 -0.03598119710917327    8    2    4    4
 -0.03598119710917327    8    2    5    5
 -0.02825833508541653    8    2    6    6
 -0.02825833508541655    8    2    7    7
 0.07091143053384279    8    2    8    2
 0.1877585739913379    8    3    2    1
 0.07301567196795597    8    3    3    2
 0.1671339819629407    8    3    6    5
 0.1671339819629407    8    3    7    4
 -0.03037990418154678    8    3    8    1
 0.1889578486789936    8    3    8    3
 -0.0112483155323715    8    4    4    2
 -0.01351557401179062    8    4    7    1
 0.01314404977251781    8    4    7    3
 0.01913171351506193    8    4    8    4
 -0.0112483155323715    8    5    5    2
 -0.01351557401179061    8    5    6    1
 0.0131440497725178    8    5    6    3
 0.01913171351506193    8    5    8    5
 -0.01650433655206058    8    6    5    1
 0.01605300878802056    8    6    5    3
 -0.01113461175841106    8    6    6    2
 0.02048277840105327    8    6    8    6
 -0.01650433655206059    8    7    4    1
 0.01605300878802056    8    7    4    3
 -0.01113461175841108    8    7    7    2
 0.02048277840105328    8    7    8    7
 0.478050316697014    8    8    1    1
 0.4647866342977872    8    8    2    2
 -0.03553457733197261    8    8    3    1
 0.4763973036929326    8    8    3    3
 0.4342307424359999    8    8    4    4
 0.4342307424359998    8    8    5    5
 0.4385619530906578    8    8    6    6
 0.4385619530906581    8    8    7    7
 -0.04153475609378469    8    8    8    2
 0.4995459617568292    8    8    8    8
 -0.01935659678990623    9    1    4    1
 -0.006007495579636495    9    1    4    3
 -0.02318810203155308    9    1    7    2
 0.003848941664867053    9    1    8    7
 0.02167405614953701    9    1    9    1
 -0.02752943443619403    9    2    4    2
 -0.02734938389775914    9    2    7    1
 -0.006751733213696066    9    2    7    3
 0.005220008623370037    9    2    8    4
 0.02312667349023763    9    2    9    2
 -0.01173985844544061    9    3    4    1
 -0.003697279186816202    9    3    4    3
 -0.0122086837844881    9    3    7    2
 -0.002819962388398179    9    3    8    7
 0.00231108774640221    9    3    9    1
 0.01056427577330096    9    3    9    3
 -0.08935500415372867    9    4    1    1
 -0.09713580806662163    9    4    2    2
 -0.008579630264459291    9    4    3    1
 -0.08024919970946759    9    4    3    3
 -0.08324869144120027    9    4    4    4
 -0.07577025564243881    9    4    5    5
 -0.08271685225909031    9    4    6    6
 -0.09267849487419742    9    4    7    7
 0.005386878099783962    9    4    8    2
 -0.09089960664765132    9    4    8    8
 0.07067503911495372    9    4    9    4
 -0.003739217899380725    9    5    5    4
 -0.004980821307553489    9    5    7    6
 0.008149664123233709    9    5    9    5
 -0.005850312854931932    9    6    6    4
 -0.005850312854931938    9    6    7    5
 0.007819243377633357    9    6    9    6
 -0.09728414850203362    9    7    2    1
 -0.0321273573693793    9    7    3    2
 -0.08446418884574385    9    7    6    5
 -0.09616481455560778    9    7    7    4
 0.02175666585837619    9    7    8    1
 -0.08202987878474215    9    7    8    3
 0.07797583779132218    9    7    9    7
 0.005480650946050105    9    8    4    2
 0.006542484719728734    9    8    7    1
 -0.005298726955572864    9    8    7    3
 -0.008239337265667803    9    8    8    4
 -0.002992726881629501    9    8    9    2
 0.008813690749189904    9    8    9    8
 0.4151698165617596    9    9    1    1
 0.4100696281656588    9    9    2    2
 -0.01690638896888873    9    9    3    1
 0.3960423258525664    9    9    3    3
 0.4114519254783463    9    9    4    4
 0.3851426841585601    9    9    5    5
 0.3891683933902095    9    9    6    6
 0.4157556600735796    9    9    7    7
 -0.02988831819349957    9    9    8    2
 0.407191415053657    9    9    8    8
 -0.07742812116054619    9    9    9    4
 0.4001983046637092    9    9    9    9
 -0.01935659678990623   10    1    5    1
 -0.006007495579636494   10    1    5    3
 -0.02318810203155307   10    1    6    2
 0.003848941664867049   10    1    8    6
 0.02167405614953701   10    1   10    1
 -0.02752943443619403   10    2    5    2
 -0.02734938389775913   10    2    6    1
 -0.006751733213696065   10    2    6    3
 0.005220008623370035   10    2    8    5
 0.02312667349023763   10    2   10    2
 -0.01173985844544062   10    3    5    1
 -0.003697279186816202   10    3    5    3
 -0.0122086837844881   10    3    6    2
 -0.002819962388398174   10    3    8    6
 0.00231108774640221   10    3   10    1
 0.01056427577330096   10    3   10    3
 -0.003739217899380725   10    4    5    4
 -0.004980821307553489   10    4    7    6
 0.008149664123233709   10    4    9    5
 0.008149664123233709   10    4   10    4
 -0.08935500415372866   10    5    1    1
 -0.09713580806662166   10    5    2    2
 -0.008579630264459298   10    5    3    1
 -0.08024919970946756   10    5    3    3
 -0.07577025564243879   10    5    4    4
 -0.08324869144120027   10    5    5    5
 -0.09267849487419728   10    5    6    6
 -0.0827168522590904   10    5    7    7
 0.005386878099783967   10    5    8    2
 -0.09089960664765129   10    5    8    8
 0.05437571086848634   10    5    9    4
 -0.07220387360912722   10    5    9    9
 0.07067503911495378   10    5   10    5
 -0.09728414850203347   10    6    2    1
 -0.03212735736937926   10    6    3    2
 -0.0961648145556076   10    6    6    5
 -0.08446418884574376   10    6    7    4
 0.02175666585837617   10    6    8    1
 -0.08202987878474204   10    6    8    3
 0.06233735103605543   10    6    9    7
 0.07797583779132207   10    6   10    6
 -0.005850312854931942   10    7    6    4
 -0.005850312854931948   10    7    7    5
 0.00781924337763336   10    7    9    6
 0.007819243377633364   10    7   10    7
 0.005480650946050104   10    8    5    2
 0.006542484719728729   10    8    6    1
 -0.005298726955572858   10    8    6    3
 -0.008239337265667801   10    8    8    5
 -0.002992726881629503   10    8   10    2
 0.008813690749189904   10    8   10    8
 0.01315462065989301   10    9    5    4
 0.01329363334168487   10    9    7    6
 -0.002612123775709482   10    9    9    5
 -0.002612123775709482   10    9   10    4
 0.01397098485616578   10    9   10    9
 0.4151698165617596   10   10    1    1
 0.4100696281656588   10   10    2    2
 -0.01690638896888873   10   10    3    1
 0.3960423258525664   10   10    3    3
 0.3851426841585602   10   10    4    4
 0.4114519254783462   10   10    5    5
 0.4157556600735793   10   10    6    6
 0.3891683933902098   10   10    7    7
 -0.02988831819349957   10   10    8    2
 0.407191415053657   10   10    8    8
 -0.07220387360912722   10   10    9    4
 0.3722563349513774   10   10    9    9
 -0.07742812116054619   10   10   10    5
 0.4001983046637092   10   10   10   10
 0.03110190783830123   11    1    2    1
 0.02670226028039348   11    1    3    2
 0.02736830422640231   11    1    6    5
 0.02736830422640233   11    1    7    4
 0.01094656977397655   11    1    8    1
 0.02196828299117258   11    1    8    3
 -0.02488214518493314   11    1    9    7
 -0.02488214518493312   11    1   10    6
 0.02145778069845494   11    1   11    1
 0.05151959949284266   11    2    1    1
 0.06327158975892876   11    2    2    2
 0.02088455165265008   11    2    3    1
 0.05262806798584121   11    2    3    3
 0.04768923578539941   11    2    4    4
 0.04768923578539942   11    2    5    5
 0.05239052769435479   11    2    6    6
 0.05239052769435483   11    2    7    7
 0.01412011100146775   11    2    8    2
 0.04666673548005744   11    2    8    8
 -0.03381226831693314   11    2    9    4
 0.04714688673893724   11    2    9    9
 -0.03381226831693314   11    2   10    5
 0.04714688673893728   11    2   10   10
 0.03673981423978808   11    2   11    2
 0.07056124159719449   11    3    2    1
 0.02563357462934143   11    3    3    2
 0.06052801482878616   11    3    6    5
 0.06052801482878619   11    3    7    4
 -0.0148052774331401   11    3    8    1
 0.06608407928411662   11    3    8    3
 -0.05048027252405159   11    3    9    7
 -0.05048027252405154   11    3   10    6
 0.02724693510027465   11    3   11    1
 0.05845617579339092   11    3   11    3
 0.007296264404706355   11    4    4    2
 0.006715141268888944   11    4    7    1
 0.004769495463539754   11    4    7    3
 0.001583540164693695   11    4    8    4
 -0.01057543381963168   11    4    9    2
 -0.004225664641005627   11    4    9    8
 0.009546611298066351   11    4   11    4
 0.007296264404706355   11    5    5    2
 0.006715141268888937   11    5    6    1
 0.004769495463539748   11    5    6    3
 0.001583540164693695   11    5    8    5
 -0.01057543381963168   11    5   10    2
 -0.004225664641005628   11    5   10    8
 0.009546611298066351   11    5   11    5
 0.005884816704407321   11    6    5    1
 0.004957722889520887   11    6    5    3
 0.007965675883916144   11    6    6    2
 0.001955244757172997   11    6    8    6
 -0.01013802289857637   11    6   10    1
 -0.007569119629403062   11    6   10    3
 0.0114881104294052   11    6   11    6
 0.005884816704407342   11    7    4    1
 0.004957722889520895   11    7    4    3
 0.007965675883916175   11    7    7    2
 0.001955244757173004   11    7    8    7
 -0.01013802289857638   11    7    9    1
 -0.007569119629403066   11    7    9    3
 0.01148811042940521   11    7   11    7
 0.08426605351816926   11    8    1    1
 0.08116318326264806   11    8    2    2
 -0.01052284653591618   11    8    3    1
 0.08291175829649569   11    8    3    3
 0.06972418331563765   11    8    4    4
 0.06972418331563766   11    8    5    5
 0.0716052550747706   11    8    6    6
 0.07160525507477067   11    8    7    7
 -0.01490657332724787   11    8    8    2
 0.08921057069986478   11    8    8    8
 -0.03995371747514473   11    8    9    4
 0.0677323697308166   11    8    9    9
 -0.03995371747514474   11    8   10    5
 0.0677323697308166   11    8   10   10
 0.03380245914840879   11    8   11    2
 0.0536694946606128   11    8   11    8
 -0.02416144996362061   11    9    4    2
 -0.02273554086238462   11    9    7    1
 -0.01390345223169952   11    9    7    3
 -0.004826404869459624   11    9    8    4
 0.01060978173585562   11    9    9    2
 0.001727137307786371   11    9    9    8
 -0.004120643056575601   11    9   11    4
 0.01816285704785438   11    9   11    9
 -0.02416144996362061   11   10    5    2
 -0.02273554086238462   11   10    6    1
 -0.01390345223169952   11   10    6    3
 -0.004826404869459626   11   10    8    5
 0.01060978173585563   11   10   10    2
 0.00172713730778637   11   10   10    8
 -0.004120643056575602   11   10   11    5
 0.01816285704785437   11   10   11   10
 0.3676170481683665   11   11    1    1
 0.3883099499238847   11   11    2    2
 0.03523122502243108   11   11    3    1
 0.3840974014867581   11   11    3    3
 0.3493579264663246   11   11    4    4
 0.3493579264663245   11   11    5    5
 0.3604902581444345   11   11    6    6
 0.3604902581444347   11   11    7    7
 0.0271881337709471   11   11    8    2
 0.3842269804604723   11   11    8    8
 -0.06759033448409529   11   11    9    4
 0.3377019435649176   11   11    9    9
 -0.06759033448409522   11   11   10    5
 0.3377019435649176   11   11   10   10
 0.04477680499060579   11   11   11    2
 0.04683727308546398   11   11   11    8
 0.3759905779602958   11   11   11   11
 -0.06568381953135601   12    1    1    1
 -0.07260882304772832   12    1    2    2
 -0.008826399113676418   12    1    3    1
 -0.06035143859203883   12    1    3    3
 -0.05754829197183643   12    1    4    4
 -0.05754829197183643   12    1    5    5
 -0.06306773622450514   12    1    6    6
 -0.06306773622450519   12    1    7    7
 0.001294333606669099   12    1    8    2
 -0.06594858338251208   12    1    8    8
 0.04488829577938863   12    1    9    4
 -0.05554745310352368   12    1    9    9
 0.04488829577938863   12    1   10    5
 -0.05554745310352368   12    1   10   10
 -0.03146183819528011   12    1   11    2
 -0.03603642012273933   12    1   11    8
 -0.04877552374570394   12    1   11   11
 0.03639163260780265   12    1   12    1
 -0.07227360852932076   12    2    2    1
 -0.02840381577749277   12    2    3    2
 -0.06400962890877303   12    2    6    5
 -0.06400962890877306   12    2    7    4
 0.01174999512637773   12    2    8    1
 -0.06099360610277963   12    2    8    3
 0.0543349090004909   12    2    9    7
 0.05433490900049085   12    2   10    6
 -0.02703817570212069   12    2   11    1
 -0.04998704158276192   12    2   11    3
 0.04944944649988664   12    2   12    2
 -0.05203100244778722   12    3    1    1
 -0.05447087583224554   12    3    2    2
 -0.00380347312281325   12    3    3    1
 -0.05356228163369373   12    3    3    3
 -0.04555173010343331   12    3    4    4
 -0.0455517301034333   12    3    5    5
 -0.04657924684414179   12    3    6    6
 -0.04657924684414183   12    3    7    7
 -0.002207059263138921   12    3    8    2
 -0.04745012193797406   12    3    8    8
 0.02439867007271519   12    3    9    4
 -0.04542985804023654   12    3    9    9
 0.0243986700727152   12    3   10    5
 -0.04542985804023653   12    3   10   10
 -0.03142089086026536   12    3   11    2
 -0.03525878098739288   12    3   11    8
 -0.03255572490823137   12    3   11   11
 0.02506725636222232   12    3   12    1
 0.03192482113329563   12    3   12    3
 -0.005387806940154895   12    4    4    1
 -0.003847603074072514   12    4    4    3
 -0.008012775427941484   12    4    7    2
 0.001423976633613324   12    4    8    7
 0.01714978274930456   12    4    9    1
 0.003302009630510895   12    4    9    3
 -0.01188175626685182   12    4   11    7
 0.01760324466650592   12    4   12    4
 -0.005387806940154894   12    5    5    1
 -0.003847603074072514   12    5    5    3
 -0.008012775427941477   12    5    6    2
 0.001423976633613324   12    5    8    6
 0.01714978274930456   12    5   10    1
 0.003302009630510896   12    5   10    3
 -0.01188175626685182   12    5   11    6
 0.01760324466650592   12    5   12    5
 -0.01214132757738204   12    6    5    2
 -0.01211945925512353   12    6    6    1
 -0.002458183845722869   12    6    6    3
 0.003348988559474949   12    6    8    5
 0.01794640471545244   12    6   10    2
 -0.0002191444241534947   12    6   10    8
 -0.01128820789163758   12    6   11    5
 0.003668025205973808   12    6   11   10
 0.01780368985599525   12    6   12    6
 -0.01214132757738207   12    7    4    2
 -0.01211945925512357   12    7    7    1
 -0.002458183845722885   12    7    7    3
 0.003348988559474951   12    7    8    4
 0.01794640471545245   12    7    9    2
 -0.0002191444241534972   12    7    9    8
 -0.01128820789163758   12    7   11    4
 0.003668025205973827   12    7   11    9
 0.01780368985599527   12    7   12    7
 0.006897049644782033   12    8    2    1
 -0.005462136822873529   12    8    3    2
 0.008962850077801957   12    8    6    5
 0.008962850077801947   12    8    7    4
 -0.009080838733299795   12    8    8    1
 0.008183455747767403   12    8    8    3
 0.004838348898705787   12    8    9    7
 0.004838348898705774   12    8   10    6
 -0.01525858424352271   12    8   11    1
 -0.02106180696180483   12    8   11    3
 0.01455191726713037   12    8   12    2
 0.0212609440270962   12    8   12    8
 0.04674798136516852   12    9    4    1
 0.006185041530616405   12    9    4    3
 0.04872971890343902   12    9    7    2
 -0.004997981508315531   12    9    8    7
 -0.01134883094726396   12    9    9    1
 -0.009893519941943292   12    9    9    3
 0.003464162496996785   12    9   11    7
 -0.001012887200276883   12    9   12    4
 0.03946151617265073   12    9   12    9
 0.04674798136516852   12   10    5    1
 0.006185041530616406   12   10    5    3
 0.048729718903439   12   10    6    2
 -0.004997981508315526   12   10    8    6
 -0.01134883094726396   12   10   10    1
 -0.009893519941943291   12   10   10    3
 0.003464162496996766   12   10   11    6
 -0.001012887200276883   12   10   12    5
 0.03946151617265074   12   10   12   10
 -0.1497653946944665   12   11    2    1
 -0.09574872172497698   12   11    3    2
 -0.1386589038211472   12   11    6    5
 -0.1386589038211472   12   11    7    4
 -0.01793225555316822   12   11    8    1
 -0.142565717824949   12   11    8    3
 0.05763453143939283   12   11    9    7
 0.05763453143939278   12   11   10    6
 -0.02358850362640614   12   11   11    1
 -0.03620967393224445   12   11   11    3
 0.04085148675303436   12   11   12    2
 -0.01101557989677553   12   11   12    8
 0.1570681875127513   12   11   12   11
 0.3737527782749783   12   12    1    1
 0.3867617413788912   12   12    2    2
 0.02081748674717852   12   12    3    1
 0.3768951394913666   12   12    3    3
 0.3587138797036178   12   12    4    4
 0.3587138797036178   12   12    5    5
 0.3672046907742537   12   12    6    6
 0.3672046907742538   12   12    7    7
 0.01158899187981385   12   12    8    2
 0.3774285584535246   12   12    8    8
 -0.06078378464932679   12   12    9    4
 0.3443968657915644   12   12    9    9
 -0.06078378464932675   12   12   10    5
 0.3443968657915644   12   12   10   10
 0.04083544967997184   12   12   11    2
 0.04454141136704336   12   12   11    8
 0.3545447536068313   12   12   11   11
 -0.04404642102634454   12   12   12    1
 -0.03203791315684391   12   12   12    3
 0.3461158315340208   12   12   12   12
 0.02023642847290799   13    1    5    2
 0.02075082778773285   13    1    6    1
 0.0007659182853951382   13    1    6    3
 -0.008536290438816622   13    1    8    5
 -0.01959298978943445   13    1   10    2
 0.004750929374041971   13    1   10    8
 0.008290519935785071   13    1   11    5
 -0.00537387384925396   13    1   11   10
 -0.01632110918326277   13    1   12    6
 0.01834657966672396   13    1   13    1
 0.01952367841052745   13    2    5    1
 0.001015780965344317   13    2    5    3
 0.02104061958151806   13    2    6    2
 -0.007192960286215321   13    2    8    6
 -0.0195390160467423   13    2   10    1
 -0.00449782041563733   13    2   10    3
 0.01105132735925249   13    2   11    6
 -0.01694502699811504   13    2   12    5
 0.01067964451886626   13    2   12   10
 0.02000958230704682   13    2   13    2
 -0.001341940170048773   13    3    5    2
 -0.002133847441518964   13    3    6    1
 0.004268443704562144   13    3    6    3
 0.005002140065586104   13    3    8    5
 -0.003205573697125303   13    3   10    2
 -0.006630038395188524   13    3   10    8
 0.007047548893292571   13    3   11    5
 -0.002088899380618043   13    3   11   10
 -0.005650977416683042   13    3   12    6
 0.001446146505903581   13    3   13    1
 0.007287662426543252   13    3   13    3
 0.003853296513872653   13    4    6    4
 0.003853296513872658   13    4    7    5
 -0.007208817356972613   13    4    9    6
 -0.007208817356972615   13    4   10    7
 0.007057217837202449   13    4   13    4
 0.07131892769414071   13    5    2    1
 0.01581122884060979   13    5    3    2
 0.06900217206896447   13    5    6    5
 0.06129557904121919   13    5    7    4
 -0.02483256884855076   13    5    8    1
 0.06048873396663284   13    5    8    3
 -0.05225528421904993   13    5    9    7
 -0.06667291893299512   13    5   10    6
 0.01995338559892345   13    5   11    1
 0.04355298314939429   13    5   11    3
 -0.04659149292127909   13    5   12    2
 -0.005673231589410433   13    5   12    8
 -0.0341989884616757   13    5   12   11
 0.0602329772788708   13    5   13    5
 0.09738229379289548   13    6    1    1
 0.09737719368893212   13    6    2    2
 -0.006249757275964747   13    6    3    1
 0.08610037040195614   13    6    3    3
 0.08130727223965017   13    6    4    4
 0.08843598277097096   13    6    5    5
 0.09427535234503862   13    6    6    6
 0.08576640315668541   13    6    7    7
 -0.01749596955566605   13    6    8    2
 0.098162899267547   13    6    8    8
 -0.05290005340004574   13    6    9    4
 0.07821070871360426   13    6    9    9
 -0.06807338290494137   13    6   10    5
 0.08427744807323799   13    6   10   10
 0.03295216523992005   13    6   11    2
 0.0440650063929108   13    6   11    8
 0.06145155467483659   13    6   11   11
 -0.04427688488085803   13    6   12    1
 -0.02752512703853544   13    6   12    3
 0.05759387026581617   13    6   12   12
 0.07077260967701385   13    6   13    6
 0.00356435526566038   13    7    5    4
 0.004254474594176639   13    7    7    6
 -0.007586664752447776   13    7    9    5
 -0.007586664752447776   13    7   10    4
 0.003033369679816852   13    7   10    9
 0.007851736569278119   13    7   13    7
 -0.01425951021006121   13    8    5    1
 0.004413291490244883   13    8    5    3
 -0.01338540654018944   13    8    6    2
 0.00916237105474433   13    8    8    6
 0.005843342996015627   13    8   10    1
 -0.005169664412151113   13    8   10    3
 0.004671833626729607   13    8   11    6
 0.0001215410837528617   13    8   12    5
 -0.007989932293238688   13    8   12   10
 -0.004654769257418479   13    8   13    2
 0.01116243796769217   13    8   13    8
 -0.0115308146595392   13    9    6    4
 -0.0115308146595392   13    9    7    5
 0.004212934573164683   13    9    9    6
 0.004212934573164692   13    9   10    7
 -0.002674100890857726   13    9   13    4
 0.01127064377192695   13    9   13    9
 -0.1636742435444953   13   10    2    1
 -0.06036580209211206   13   10    3    2
 -0.1721412795448723   13   10    6    5
 -0.149079650225794   13   10    7    4
 0.02757173794306036   13   10    8    1
 -0.1408999215452135   13   10    8    3
 0.0740020209639701   13   10    9    7
 0.08242789011029936   13   10   10    6
 -0.02310951060464761   13   10   11    1
 -0.05276851563397655   13   10   11    3
 0.05544606776665694   13   10   12    2
 -0.007907269788437431   13   10   12    8
 0.123259126013759   13   10   12   11
 -0.05954723251075734   13   10   13    5
 0.1560204054085521   13   10   13   10
 0.02508784413000622   13   11    5    1
 0.01191694398586903   13   11    5    3
 0.0291417774228413   13   11    6    2
 0.005732322305570815   13   11    8    6
 -0.006043127157460363   13   11   10    1
 -0.006340844673096665   13   11   10    3
 0.001630846428244372   13   11   11    6
 0.000930513227055091   13   11   12    5
 0.02565449646810143   13   11   12   10
 0.003329770195647334   13   11   13    2
 -0.002777614314312846   13   11   13    8
 0.02262974608149742   13   11   13   11
 -0.04056418312346   13   12    5    2
 -0.03973176819440669   13   12    6    1
 -0.01328999323759862   13   12    6    3
 0.002737930603766433   13   12    8    5
 0.01513040056783201   13   12   10    2
 -0.003587777464607424   13   12   10    8
 -0.001756108186054478   13   12   11    5
 0.02279191491211594   13   12   11   10
 0.002848579637929595   13   12   12    6
 -0.009246681061578364   13   12   13    1
 0.002150058428912462   13   12   13    3
 0.03606055002848361   13   12   13   12
 0.3959034860288628   13   13    1    1
 0.3948531910468457   13   13    2    2
 -0.0092983759254629   13   13    3    1
 0.3782092622665786   13   13    3    3
 0.3693019412937439   13   13    4    4
 0.3942697680618044   13   13    5    5
 0.4009532859616145   13   13    6    6
 0.3748154352755328   13   13    7    7
 -0.02367232170094688   13   13    8    2
 0.3909178014456461   13   13    8    8
 -0.06813956392250223   13   13    9    4
 0.3567023328936803   13   13    9    9
 -0.07283695451658245   13   13   10    5
 0.3825867388841877   13   13   10   10
 0.0403852429075679   13   13   11    2
 0.05858567182881984   13   13   11    8
 0.3333171837897391   13   13   11   11
 -0.05041257513401347   13   13   12    1
 -0.03619370955876542   13   13   12    3
 0.3377668243395348   13   13   12   12
 0.07473081092391452   13   13   13    6
 0.3727982854666558   13   13   13   13
 0.02023642847290794   14    1    4    2
 0.02075082778773282   14    1    7    1
 0.0007659182853951304   14    1    7    3
 -0.008536290438816612   14    1    8    4
 -0.01959298978943443   14    1    9    2
 0.004750929374041968   14    1    9    8
 0.008290519935785058   14    1   11    4
 -0.00537387384925394   14    1   11    9
 -0.01632110918326276   14    1   12    7
 0.01834657966672393   14    1   14    1
 0.01952367841052739   14    2    4    1
 0.001015780965344309   14    2    4    3
 0.02104061958151802   14    2    7    2
 -0.007192960286215315   14    2    8    7
 -0.01953901604674228   14    2    9    1
 -0.00449782041563732   14    2    9    3
 0.01105132735925249   14    2   11    7
 -0.01694502699811504   14    2   12    4
 0.01067964451886621   14    2   12    9
 0.02000958230704679   14    2   14    2
 -0.001341940170048785   14    3    4    2
 -0.002133847441518972   14    3    7    1
 0.004268443704562136   14    3    7    3
 0.005002140065586092   14    3    8    4
 -0.003205573697125298   14    3    9    2
 -0.006630038395188519   14    3    9    8
 0.007047548893292567   14    3   11    4
 -0.002088899380618031   14    3   11    9
 -0.005650977416683038   14    3   12    7
 0.001446146505903583   14    3   14    1
 0.007287662426543245   14    3   14    3
 0.07131892769414055   14    4    2    1
 0.01581122884060972   14    4    3    2
 0.06129557904121899   14    4    6    5
 0.06900217206896435   14    4    7    4
 -0.02483256884855072   14    4    8    1
 0.06048873396663267   14    4    8    3
 -0.06667291893299504   14    4    9    7
 -0.05225528421904978   14    4   10    6
 0.01995338559892343   14    4   11    1
 0.04355298314939422   14    4   11    3
 -0.04659149292127907   14    4   12    2
 -0.005673231589410444   14    4   12    8
 -0.03419898846167559   14    4   12   11
 0.04611854160446582   14    4   13    5
 -0.0541990307290417   14    4   13   10
 0.06023297727887063   14    4   14    4
 0.003853296513872641   14    5    6    4
 0.003853296513872646   14    5    7    5
 -0.007208817356972607   14    5    9    6
 -0.00720881735697261   14    5   10    7
 0.007057217837202446   14    5   13    4
 -0.002674100890857717   14    5   13    9
 0.007057217837202441   14    5   14    5
 0.003564355265660357   14    6    5    4
 0.004254474594176616   14    6    7    6
 -0.00758666475244777   14    6    9    5
 -0.00758666475244777   14    6   10    4
 0.003033369679816831   14    6   10    9