 &FCI NORB=  26,NELEC=10,MS2=0,
  ORBSYM=1,1,1,1,1,1,1,1,1,1,1,1,1,1,1,1,1,1,1,1,1,1,1,1,1,1
  ISYM=1,
 &END
 0.7542124826860378    1    1    1    1
 0.07062310394530648    2    1    2    1
 0.5091590557267455    2    2    1    1
 0.5280509519322817    2    2    2    2
 -0.1328483231244136    3    1    1    1
 -0.001228735898015591    3    1    2    2
 0.07051122999357404    3    1    3    1
 0.1015249850638739    3    2    2    1
 0.197795174798837    3    2    3    2
 0.5520515261918986    3    3    1    1
 0.531697619569796    3    3    2    2
 -0.02882654940351271    3    3    3    1
 0.5559169319927194    3    3    3    3
 0.09316959078123432    4    1    4    1
 0.0442540304111419    4    2    4    2
 0.00869651760345067    4    3    4    1
 0.02232438486001744    4    3    4    3
 0.5953322168184478    4    4    1    1
 0.4821483247838076    4    4    2    2
 -0.05759144713647894    4    4    3    1
 0.4906396522303754    4    4    3    3
 0.5469396703409934    4    4    4    4
 0.09316959078123434    5    1    5    1
 0.04425403041114191    5    2    5    2
 0.008696517603450672    5    3    5    1
 0.02232438486001744    5    3    5    3
 0.02147574270571868    5    4    5    4
 0.5953322168184478    5    5    1    1
 0.4821483247838077    5    5    2    2
 -0.05759144713647894    5    5    3    1
 0.4906396522303754    5    5    3    3
 0.503988184929556    5    5    4    4
 0.5469396703409933    5    5    5    5
 0.03780021786981656    6    1    5    2
 0.03631426346151527    6    1    6    1
 0.06512984694920855    6    2    5    1
 0.02998580327541342    6    2    5    3
 0.07307485934385741    6    2    6    2
 0.03270596001501486    6    3    5    2
 0.02219723830902159    6    3    6    1
 0.03334281298285616    6    3    6    3
 0.0142693631058712    6    4    6    4
 0.09584192624559433    6    5    2    1
 0.1333586697285481    6    5    3    2
 0.148450411947112    6    5    6    5
 0.523623035605484    6    6    1    1
 0.4792625664207193    6    6    2    2
 -0.02529773734357444    6    6    3    1
 0.4798411900300563    6    6    3    3
 0.4663280618113174    6    6    4    4
 0.5020178631008416    6    6    5    5
 0.4852394682758339    6    6    6    6
 0.03780021786981642    7    1    4    2
 0.03631426346151499    7    1    7    1
 0.06512984694920841    7    2    4    1
 0.02998580327541339    7    2    4    3
 0.07307485934385712    7    2    7    2
 0.03270596001501482    7    3    4    2
 0.02219723830902153    7    3    7    1
 0.03334281298285606    7    3    7    3
 0.095841926245594    7    4    2    1
 0.1333586697285476    7    4    3    2
 0.1199116857353692    7    4    6    5
 0.148450411947111    7    4    7    4
 0.01426936310587116    7    5    6    4
 0.01426936310587113    7    5    7    5
 0.01784490064476215    7    6    5    4
 0.01850047938146053    7    6    7    6
 0.5236230356054818    7    7    1    1
 0.4792625664207177    7    7    2    2
 -0.02529773734357411    7    7    3    1
 0.4798411900300547    7    7    3    3
 0.5020178631008401    7    7    4    4
 0.4663280618113158    7    7    5    5
 0.4482385095129113    7    7    6    6
 0.4852394682758308    7    7    7    7
 -0.04658356403961525    8    1    2    1
 -0.04050614617642341    8    1    3    2
 -0.06466492402562836    8    1    6    5
 -0.06466492402562803    8    1    7    4
 0.04846038391274578    8    1    8    1
 -0.09722452263149288    8    2    1    1
 -0.03875417316330297    8    2    2    2
 0.02542671191500444    8    2    3    1
 -0.03687009036276664    8    2    3    3
 -0.07378426842912805    8    2    4    4
 -0.07378426842912807    8    2    5    5
 -0.05550754808784658    8    2    6    6
 -0.05550754808784607    8    2    7    7
 0.03652535079267589    8    2    8    2
 0.02816855118116615    8    3    2    1
 0.05451936714755234    8    3    3    2
 0.035947342542698    8    3    6    5
 0.035947342542698    8    3    7    4
 -0.0133180404344852    8    3    8    1
 0.03496270041138225    8    3    8    3
 -0.0221080417921478    8    4    4    2
 -0.02402990236298198    8    4    7    1
 -0.007716900134956663    8    4    7    3
 0.01956160449840927    8    4    8    4
 -0.02210804179214778    8    5    5    2
 -0.02402990236298209    8    5    6    1
 -0.007716900134956685    8    5    6    3
 0.01956160449840927    8    5    8    5
 -0.03805814334735518    8    6    5    1
 -0.002337431479383565    8    6    5    3
 -0.02469601715579314    8    6    6    2
 0.0221619645350296    8    6    8    6
 -0.03805814334735497    8    7    4    1
 -0.00233743147938351    8    7    4    3
 -0.02469601715579285    8    7    7    2
 0.02216196453502941    8    7    8    7
 0.4275933129068389    8    8    1    1
 0.3920608970634282    8    8    2    2
 -0.02441986704248729    8    8    3    1
 0.4040399919700704    8    8    3    3
 0.3874261320570874    8    8    4    4
 0.3874261320570871    8    8    5    5
 0.3761229537041739    8    8    6    6
 0.3761229537041741    8    8    7    7
 -0.01451224825992979    8    8    8    2
 4.044400632441408e-15    8    8    8    3
 0.3669834561389275    8    8    8    8
 0.07720375132739692    9    1    1    1
 0.01962254542120491    9    1    2    2
 -0.03850170718488698    9    1    3    1
 0.04243051560121035    9    1    3    3
 0.02748659118291748    9    1    4    4
 0.02748659118291747    9    1    5    5
 0.02068701256395399    9    1    6    6
 0.02068701256395373    9    1    7    7
 -0.006024783869123394    9    1    8    2
 0.02649993454909449    9    1    8    8
 0.03763232929403976    9    1    9    1
 -0.006085829952709337    9    2    2    1
 -0.001318147655691325    9    2    3    2
 -0.009633159081197358    9    2    6    5
 -0.009633159081197286    9    2    7    4
 0.009691154568763197    9    2    8    1
 0.01434317767475545    9    2    8    3
 -1.172555010366208e-15    9    2    8    8
 0.01601372387279362    9    2    9    2
 -0.1293532742697676    9    3    1    1
 -0.05840453932603345    9    3    2    2
 0.04025784780223678    9    3    3    1
 -0.07248907951690392    9    3    3    3
 -0.08394668964506029    9    3    4    4
 -0.0839466896450603    9    3    5    5
 -0.06496969757330302    9    3    6    6
 -0.06496969757330233    9    3    7    7
 0.03559355572500087    9    3    8    2
 -0.02484427889549547    9    3    8    8
 -0.0244293144090831    9    3    9    1
 0.05196215478415066    9    3    9    3
 -0.02382478582617083    9    4    4    1
 -0.008026727065584599    9    4    4    3
 -0.01998133695278994    9    4    7    2
 0.01173581197781324    9    4    8    7
 0.01854999735097    9    4    9    4
 -0.02382478582617083    9    5    5    1
 -0.008026727065584601    9    5    5    3
 -0.01998133695278997    9    5    6    2
 0.0117358119778133    9    5    8    6
 0.01854999735097    9    5    9    5
 -0.006301860624667415    9    6    5    2
 -0.004777790054332714    9    6    6    1
 -0.003426175876529346    9    6    6    3
 0.005767796070923007    9    6    8    5
 0.007317722389180859    9    6    9    6
 -0.006301860624667361    9    7    4    2
 -0.004777790054332679    9    7    7    1
 -0.003426175876529228    9    7    7    3
 0.005767796070923014    9    7    8    4
 0.007317722389180889    9    7    9    7
 0.03248192335475692    9    8    2    1
 0.07493963437828599    9    8    3    2
 0.04477008831327104    9    8    6    5
 0.04477008831327114    9    8    7    4
 0.0004948918700403792    9    8    8    1
 0.03824255966497064    9    8    8    3
 1.329925865147904e-15    9    8    8    8
 0.0194071574151787    9    8    9    2
 0.07477706078462924    9    8    9    8
 0.4656862219042391    9    9    1    1
 0.399197731645583    9    9    2    2
 -0.04003789849173536    9    9    3    1
 0.4171956231535121    9    9    3    3
 0.4127313488732892    9    9    4    4
 0.4127313488732892    9    9    5    5
 0.389561689771584    9    9    6    6
 0.3895616897715831    9    9    7    7
 -0.02738458528147847    9    9    8    2
 0.3599056786167697    9    9    8    8
 0.02725330252827166    9    9    9    1
 -0.04352029815311721    9    9    9    3
 0.3752257478364903    9    9    9    9
 -0.03267408435913505   10    1    4    1
 0.002771761507310552   10    1    4    3
 -0.01846231308884682   10    1    7    2
 0.01618927317010749   10    1    8    7
 -0.001538624816468128   10    1    9    4
 0.0246424308086728   10    1   10    1
 -0.01321278321101232   10    2    4    2
 -0.01255090055739628   10    2    7    1
 -0.005761270822052014   10    2    7    3
 0.01050126176272958   10    2    8    4
 0.004149160713482612   10    2    9    7
 0.01409784096654051   10    2   10    2
 0.0123041502390662   10    3    4    1
 -0.004842980833418006   10    3    4    3
 0.003015629267436793   10    3    7    2
 -0.001261255499772223   10    3    8    7
 0.0004338319961354436   10    3    9    4
 -0.00172422997931762   10    3   10    1
 0.01055788625491947   10    3   10    3
 -0.1436193807046797   10    4    1    1
 -0.09326614318427018   10    4    2    2
 0.03082709001062646   10    4    3    1
 -0.1030707941069457   10    4    3    3
 -0.1055491776263448   10    4    4    4
 -0.09906303126106625   10    4    5    5
 -0.08681587549544041   10    4    6    6
 -0.09241074307121983   10    4    7    7
 0.0305075977540736   10    4    8    2
 -0.0578443884615647   10    4    8    8
 -0.02838473764205279   10    4    9    1
 0.04298779619235701   10    4    9    3
 -0.05579002462133259   10    4    9    9
 0.07489246014783865   10    4   10    4
 -0.003243073182639287   10    5    5    4
 -0.002797433787890212   10    5    7    6
 0.008194138270029214   10    5   10    5
 -0.003553383881599906   10    6    6    4
 -0.003553383881599857   10    6    7    5
 0.006876319703269604   10    6   10    6
 -0.03505508499533947   10    7    2    1
 -0.03653285468739846   10    7    3    2
 -0.04282478989400865   10    7    6    5
 -0.04993155765720794   10    7    7    4
 0.03500439639560989   10    7    8    1
 -0.004525168246537996   10    7    8    3
 0.0130321992316345   10    7    9    2
 0.01130160572282442   10    7    9    8
 0.05242283388304731   10    7   10    7
 0.01589077832592981   10    8    4    2
 0.01626174299140111   10    8    7    1
 0.008738136802227001   10    8    7    3
 -0.009331180012963991   10    8    8    4
 0.002557126390301204   10    8    9    7
 -0.006646852902561351   10    8   10    2
 0.01202848544908445   10    8   10    8
 -0.0213848373258525   10    9    4    1
 0.004590569112924324   10    9    4    3
 -0.006144551321425164   10    9    7    2
 0.01115347398868408   10    9    8    7
 0.01051432175945757   10    9    9    4
 0.002851635544692775   10    9   10    1
 -0.00596925323673321   10    9   10    3
 0.01681051240727562   10    9   10    9
 0.4969833190790718   10   10    1    1
 0.4215311064938673   10   10    2    2
 -0.03980427994426931   10   10    3    1
 0.4283462415129724   10   10    3    3
 0.4654156462062665   10   10    4    4
 0.434898689075311   10   10    5    5
 0.4096497319864379   10   10    6    6
 0.4370750237234757   10   10    7    7
 -0.05402733021137142   10   10    8    2
 0.3474848499435936   10   10    8    8
 0.02192518008762715   10   10    9    1
 -0.06500886067069349   10   10    9    3
 0.3709580616135868   10   10    9    9
 -0.07474836703645295   10   10   10    4
 0.4234521678472166   10   10   10   10
 -0.03267408435913503   11    1    5    1
 0.002771761507310537   11    1    5    3
 -0.01846231308884694   11    1    6    2
 0.0161892731701076   11    1    8    6
 -0.001538624816468127   11    1    9    5
 0.02464243080867277   11    1   11    1
 -0.01321278321101235   11    2    5    2
 -0.0125509005573964   11    2    6    1
 -0.005761270822052114   11    2    6    3
 0.01050126176272958   11    2    8    5
 0.00414916071348261   11    2    9    6
 0.01409784096654053   11    2   11    2
 0.01230415023906615   11    3    5    1
 -0.004842980833418025   11    3    5    3
 0.003015629267436685   11    3    6    2
 -0.001261255499772241   11    3    8    6
 0.0004338319961354544   11    3    9    5
 -0.001724229979317595   11    3   11    1
 0.01055788625491947   11    3   11    3
 -0.003243073182639286   11    4    5    4
 -0.002797433787890215   11    4    7    6
 0.008194138270029214   11    4   10    5
 0.008194138270029214   11    4   11    4
 -0.1436193807046797   11    5    1    1
 -0.09326614318427023   11    5    2    2
 0.03082709001062644   11    5    3    1
 -0.1030707941069457   11    5    3    3
 -0.09906303126106626   11    5    4    4
 -0.1055491776263448   11    5    5    5
 -0.09241074307122098   11    5    6    6
 -0.08681587549543959   11    5    7    7
 0.03050759775407356   11    5    8    2
 -0.05784438846156453   11    5    8    8
 -0.0283847376420528   11    5    9    1
 0.04298779619235702   11    5    9    3
 -0.05579002462133264   11    5    9    9
 0.05850418360778024   11    5   10    4
 -0.07503612986603717   11    5   10   10
 0.07489246014783869   11    5   11    5
 -0.0350550849953401   11    6    2    1
 -0.0365328546873994   11    6    3    2
 -0.04993155765720932   11    6    6    5
 -0.04282478989400913   11    6    7    4
 0.03500439639561035   11    6    8    1
 -0.004525168246538244   11    6    8    3
 0.01303219923163454   11    6    9    2
 0.01130160572282419   11    6    9    8
 0.03867019447650846   11    6   10    7
 0.05242283388304805   11    6   11    6
 -0.003553383881599836   11    7    6    4
 -0.003553383881599786   11    7    7    5
 0.006876319703269592   11    7   10    6
 0.006876319703269577   11    7   11    7
 0.01589077832592981   11    8    5    2
 0.0162617429914012   11    8    6    1
 0.008738136802227011   11    8    6    3
 -0.009331180012963946   11    8    8    5
 0.002557126390301178   11    8    9    6
 -0.006646852902561344   11    8   11    2
 0.01202848544908436   11    8   11    8
 -0.0213848373258525   11    9    5    1
 0.004590569112924323   11    9    5    3
 -0.006144551321425168   11    9    6    2
 0.01115347398868409   11    9    8    6
 0.01051432175945757   11    9    9    5
 0.002851635544692761   11    9   11    1
 -0.005969253236733211   11    9   11    3
 0.01681051240727562   11    9   11    9
 0.01525847856547767   11   10    5    4
 0.01371264586851944   11   10    7    6
 0.0001438814147920847   11   10   10    5
 0.0001438814147920848   11   10   11    4
 0.01604351628614829   11   10   11   10
 0.4969833190790718   11   11    1    1
 0.4215311064938675   11   11    2    2
 -0.03980427994426926   11   11    3    1
 0.4283462415129724   11   11    3    3
 0.434898689075311   11   11    4    4
 0.4654156462062664   11   11    5    5
 0.4370750237234769   11   11    6    6
 0.4096497319864368   11   11    7    7
 -0.05402733021137153   11   11    8    2
 0.347484849943593   11   11    8    8
 0.02192518008762721   11   11    9    1
 -0.0650088606706935   11   11    9    3
 0.3709580616135869   11   11    9    9
 -0.07503612986603724   11   11   10    4
 0.3913651352749198   11   11   10   10
 -0.07474836703645303   11   11   11    5
 0.4234521678472163   11   11   11   11
 0.08459137559620646   12    1    1    1
 0.05716228539589951   12    1    2    2
 -0.02051217182952009   12    1    3    1
 0.06793343737140137   12    1    3    3
 0.05307841224165421   12    1    4    4
 0.05307841224165422   12    1    5    5
 0.04922730754602891   12    1    6    6
 0.04922730754602833   12    1    7    7
 -0.01493248955429547   12    1    8    2
 0.03305350459273901   12    1    8    8
 0.02468809803474622   12    1    9    1
 -0.02820740151415202   12    1    9    3
 0.03178775468275554   12    1    9    9
 -0.04033895237466167   12    1   10    4
 0.0404787505023459   12    1   10   10
 -0.0403389523746617   12    1   11    5
 0.04047875050234592   12    1   11   11
 0.02925947454953114   12    1   12    1
 0.04492781937647482   12    2    2    1
 0.07834261787011243   12    2    3    2
 0.05588193358317601   12    2    6    5
 0.05588193358317569   12    2    7    4
 -0.02824227126255714   12    2    8    1
 0.01069826492873753   12    2    8    3
 -0.01507660412221918   12    2    9    2
 0.001107320154793732   12    2    9    8
 -0.041184292080061   12    2   10    7
 -0.04118429208006136   12    2   11    6
 0.05872837906096219   12    2   12    2
 0.03962273420404753   12    3    1    1
 0.08475121422953949   12    3    2    2
 0.0174254798827579   12    3    3    1
 0.08277079136760693   12    3    3    3
 0.04913555539157659   12    3    4    4
 0.0491355553915766   12    3    5    5
 0.05479273110620229   12    3    6    6
 0.05479273110620173   12    3    7    7
 -0.008988450092662262   12    3    8    2
 0.02229859771859635   12    3    8    8
 -0.003188704897105329   12    3    9    1
 -0.01935735477705348   12    3    9    3
 0.02431351719064165   12    3    9    9
 -0.02934836076368473   12    3   10    4
 0.03855789581260166   12    3   10   10
 -0.02934836076368475   12    3   11    5
 0.03855789581260167   12    3   11   11
 0.01933243943558995   12    3   12    1
 0.04924921681052655   12    3   12    3
 -0.008107292919337457   12    4    4    1
 0.000218138522609003   12    4    4    3
 -0.002537626627343585   12    4    7    2
 -0.0006478270023162587   12    4    8    7
 0.01108511179476886   12    4    9    4
 -0.01234171322422167   12    4   10    1
 -0.009380952421237564   12    4   10    3
 0.0104611655359511   12    4   10    9
 0.02262742157499253   12    4   12    4
 -0.008107292919337454   12    5    5    1
 0.0002181385226090065   12    5    5    3
 -0.002537626627343475   12    5    6    2
 -0.0006478270023162667   12    5    8    6
 0.01108511179476885   12    5    9    5
 -0.01234171322422169   12    5   11    1
 -0.009380952421237569   12    5   11    3
 0.0104611655359511   12    5   11    9
 0.02262742157499253   12    5   12    5
 0.00688083767936331   12    6    5    2
 0.005850342173461347   12    6    6    1
 0.002889058186011663   12    6    6    3
 -0.005648545291896703   12    6    8    5
 -0.00288283813567874   12    6    9    6
 -0.01429920278750346   12    6   11    2
 0.004210292860413973   12    6   11    8
 0.01737676858964736   12    6   12    6
 0.006880837679363074   12    7    4    2
 0.005850342173461072   12    7    7    1
 0.002889058186011392   12    7    7    3
 -0.005648545291896599   12    7    8    4
 -0.002882838135678723   12    7    9    7
 -0.0142992027875034   12    7   10    2
 0.004210292860413812   12    7   10    8
 0.01737676858964735   12    7   12    7
 -0.02788951784740645   12    8    2    1
 -0.04594139527105609   12    8    3    2
 -0.03754716041675864   12    8    6    5
 -0.03754716041675848   12    8    7    4
 0.01447888450723232   12    8    8    1
 -0.02582325920507584   12    8    8    3
 -1.621048793513461e-15   12    8    8    8
 -0.009789924153615785   12    8    9    2
 -0.03380617999952985   12    8    9    8
 0.01028680869695242   12    8   10    7
 0.01028680869695268   12    8   11    6
 -0.01165127094338866   12    8   12    2
 0.02665618049837024   12    8   12    8
 0.06409745923535237   12    9    1    1
 -0.004553819707188848   12    9    2    2
 -0.02924730623443051   12    9    3    1
 -0.00171758628455341   12    9    3    3
 0.04081674148662667   12    9    4    4
 0.04081674148662667   12    9    5    5
 0.01739686224203498   12    9    6    6
 0.01739686224203499   12    9    7    7
 -0.02392370246093646   12    9    8    2
 -0.004027080296007012   12    9    8    8
 0.0006100114617558709   12    9    9    1
 -0.02071018989359743   12    9    9    3
 0.01767437506782304   12    9    9    9
 -0.0006406213393958109   12    9   10    4
 0.03027680948195008   12    9   10   10
 -0.0006406213393957997   12    9   11    5
 0.03027680948194997   12    9   11   11
 -0.003081866817923371   12    9   12    1
 -0.01145139195705993   12    9   12    3
 0.03717172958147411   12    9   12    9
 -0.05361422519199197   12   10    4    1
 -0.01830448290281483   12   10    4    3
 -0.0513938971779301   12   10    7    2
 0.01893648581646869   12   10    8    7
 0.02113117612657376   12   10    9    4
 0.008646941966508987   12   10   10    1
 -0.007642724530722879   12   10   10    3
 0.01465478487146682   12   10   10    9
 0.01406560196219394   12   10   12    4
 0.05101836700558082   12   10   12   10
 -0.05361422519199198   12   11    5    1
 -0.01830448290281484   12   11    5    3
 -0.05139389717793019   12   11    6    2
 0.0189364858164688   12   11    8    6
 0.02113117612657377   12   11    9    5
 0.008646941966508996   12   11   11    1
 -0.007642724530722829   12   11   11    3
 0.01465478487146686   12   11   11    9
 0.01406560196219393   12   11   12    5
 0.05101836700558085   12   11   12   11
 0.4626188591278871   12   12    1    1
 0.4428935255720209   12   12    2    2
 -0.0155397347669976   12   12    3    1
 0.448867119504905   12   12    3    3
 0.4339343486104734   12   12    4    4
 0.4339343486104734   12   12    5    5
 0.419643417113284   12   12    6    6
 0.4196434171132828   12   12    7    7
 -0.03663046243480528   12   12    8    2
 0.3529432649420466   12   12    8    8
 0.01290870674181903   12   12    9    1
 -0.05149020138045982   12   12    9    3
 0.3714528875422441   12   12    9    9
 -0.06333451129524913   12   12   10    4
 0.3910914682772914   12   12   10   10
 -0.06333451129524921   12   12   11    5
 0.3910914682772915   12   12   11   11
 0.0363573890400728   12   12   12    1
 0.05434004771639321   12   12   12    3
 0.01278424500404407   12   12   12    9
 0.4001941676852476   12   12   12   12
 0.03468458206053743   13    1    2    1
 0.01869608206803163   13    1    3    2
 0.04951711500175866   13    1    6    5
 0.04951711500175845   13    1    7    4
 -0.04417241739100052   13    1    8    1
 0.01670257758142915   13    1    8    3
 -0.00237076999988084   13    1    9    2
 -0.0009149498837361853   13    1    9    8
 -0.02558956297722463   13    1   10    7
 -0.02558956297722494   13    1   11    6
 0.01203155078557008   13    1   12    2
 -0.01507324632107132   13    1   12    8
 0.04784100641698389   13    1   13    1
 -0.01325215547450152   13    2    1    1
 -0.07891086528822161   13    2    2    2
 -0.02360304481458973   13    2    3    1
 -0.08223124266966984   13    2    3    3
 -0.02565002479597376   13    2    4    4
 -0.02565002479597376   13    2    5    5
 -0.03868491268357804   13    2    6    6
 -0.03868491268357766   13    2    7    7
 -0.004507218314767198   13    2    8    2
 -0.01728361388135999   13    2    8    8
 0.0006274141288942501   13    2    9    1
 0.01168323202611182   13    2    9    3
 -0.01853399755380092   13    2    9    9
 0.01933132290554575   13    2   10    4
 -0.02311352544122013   13    2   10   10
 0.01933132290554578   13    2   11    5
 -0.02311352544122019   13    2   11   11
 -0.01710300532859996   13    2   12    1
 -0.04972799782018576   13    2   12    3
 0.01939488117706033   13    2   12    9
 -0.04733262943623276   13    2   12   12
 0.05793651977017313   13    2   13    2
 -0.06967136916583871   13    3    2    1
 -0.1210481857329359   13    3    3    2
 -0.08832718527997449   13    3    6    5
 -0.08832718527997402   13    3    7    4
 0.0473075737295574   13    3    8    1
 -0.02981995287038661   13    3    8    3
 2.176975412257588e-15   13    3    8    8
 0.01540314659434933   13    3    9    2
 -0.009909075501861011   13    3    9    8
 0.0514901646213449   13    3   10    7
 0.05149016462134554   13    3   11    6
 -0.07743163514443561   13    3   12    2
 0.02119181463053072   13    3   12    8
 -0.03111874771156024   13    3   13    1
 0.1191000334138248   13    3   13    3
 0.01081088859317428   13    4    4    2
 0.01584806387083303   13    4    7    1
 -0.0005346432595179008   13    4    7    3
 -0.01279822342674551   13    4    8    4
 0.0006506491145181117   13    4    9    7
 -0.0006977776360266736   13    4   10    2
 0.008206995406633699   13    4   10    8
 -0.00451778404977802   13    4   12    7
 0.01601562024211487   13    4   13    4
 0.01081088859317428   13    5    5    2
 0.01584806387083309   13    5    6    1
 -0.0005346432595179587   13    5    6    3
 -0.01279822342674551   13    5    8    5
 0.0006506491145181323   13    5    9    6
 -0.0006977776360266685   13    5   11    2
 0.008206995406633668   13    5   11    8
 -0.004517784049777964   13    5   12    6
 0.01601562024211487   13    5   13    5
 0.03005820282022619   13    6    5    1
 -0.002887000864274921   13    6    5    3
 0.01540317000288847   13    6    6    2
 -0.01156008653808351   13    6    8    6
 -0.005731329150638751   13    6    9    5
 -0.008303332987837279   13    6   11    1
 0.01168267909182247   13    6   11    3
 -0.00973663950826446   13    6   11    9
 -0.01084758058979562   13    6   12    5
 -0.01797600141692112   13    6   12   11
 0.02009313042482021   13    6   13    6
 0.03005820282022617   13    7    4    1
 -0.002887000864274806   13    7    4    3
 0.0154031700028886   13    7    7    2
 -0.01156008653808337   13    7    8    7
 -0.005731329150638794   13    7    9    4
 -0.008303332987837222   13    7   10    1
 0.01168267909182246   13    7   10    3
 -0.009736639508264415   13    7   10    9
 -0.01084758058979565   13    7   12    4
 -0.01797600141692122   13    7   12   10
 0.02009313042482015   13    7   13    7
 -0.1561045471862893   13    8    1    1
 -0.07562663546248095   13    8    2    2
 0.04232460415616369   13    8    3    1
 -0.0868182923931147   13    8    3    3
 -0.1091967211147327   13    8    4    4
 -0.1091967211147329   13    8    5    5
 -0.08460547444907471   13    8    6    6
 -0.08460547444907376   13    8    7    7
 0.03985176976818404   13    8    8    2
 1.024600779006087e-15   13    8    8    3
 -0.03737826246394597   13    8    8    8
 -0.0216498847691482   13    8    9    1
 0.04989593181787678   13    8    9    3
 -1.066562210543743e-15   13    8    9    8
 -0.05647447100424175   13    8    9    9
 0.04587300894991381   13    8   10    4
 -0.08163631856079437   13    8   10   10
 0.04587300894991378   13    8   11    5
 -0.08163631856079427   13    8   11   11
 -0.02665366196901161   13    8   12    1
 -0.01714813452909918   13    8   12    3
 -0.02967794704874139   13    8   12    9
 -0.06362781001406347   13    8   12   12
 0.006667492844779161   13    8   13    2
 0.06211140275610782   13    8   13    8
 0.04389923402931002   13    9    2    1
 0.07295600287640104   13    9    3    2
 0.05889449284503959   13    9    6    5
 0.05889449284503938   13    9    7    4
 -0.02985010172221195   13    9    8    1
 0.0344504654209605   13    9    8    3
 0.003888175792245504   13    9    9    2
 0.03093808622012797   13    9    9    8
 -0.02436337973964897   13    9   10    7
 -0.02436337973964938   13    9   11    6
 0.03195257171043354   13    9   12    2
 -0.03177079919686384   13    9   12    8
 0.02891296658744453   13    9   13    1
 -0.05780898697825156   13    9   13    3
 0.0535557748485618   13    9   13    9
 0.004532323288906128   13   10    4    2
 -0.002244831504347437   13   10    7    1
 0.01231977887868687   13   10    7    3
 0.005954016345511337   13   10    8    4
 -0.001490726751135069   13   10    9    7
 0.003608669690172465   13   10   10    2
 -0.002644442112082346   13   10   10    8
 -0.004098415702175305   13   10   12    7
 -0.007255920095303808   13   10   13    4
 0.01271398255677721   13   10   13   10
 0.004532323288906142   13   11    5    2
 -0.002244831504347479   13   11    6    1
 0.01231977887868691   13   11    6    3
 0.005954016345511332   13   11    8    5
 -0.001490726751135127   13   11    9    6
 0.003608669690172458   13   11   11    2
 -0.002644442112082359   13   11   11    8
 -0.00409841570217525   13   11   12    6
 -0.007255920095303806   13   11   13    5
 0.01271398255677722   13   11   13   11
 -0.05723181531365223   13   12    2    1
 -0.122528331588122   13   12    3    2
 -0.07590931546721691   13   12    6    5
 -0.07590931546721669   13   12    7    4
 0.01779444631016774   13   12    8    1
 -0.03427397109811104   13   12    8    3
 1.085024297148767e-15   13   12    8    8
 0.0011377925876713   13   12    9    2
 -0.05345769249686062   13   12    9    8
 0.01529939789860153   13   12   10    7
 0.01529939789860211   13   12   11    6
 -0.04641764713515668   13   12   12    2
 0.0286429165524868   13   12   12    8
 -0.004492251723851281   13   12   13    1
 0.07329579485801627   13   12   13    3
 -0.04753415362987436   13   12   13    9
 0.08463375297046218   13   12   13   12
 0.5660320504938501   13   13    1    1
 0.5157142168964572   13   13    2    2
 -0.04346185683603243   13   13    3    1
 0.5433255417692282   13   13    3    3
 0.4949724898371576   13   13    4    4
 0.4949724898371576   13   13    5    5
 0.4752777452039301   13   13    6    6
 0.4752777452039282   13   13    7    7
 -0.0473148803818201   13   13    8    2
 0.4022330574091966   13   13    8    8
 0.04742676213280835   13   13    9    1
 -0.08600585818083062   13   13    9    3
 0.4171931079204885   13   13    9    9
 -0.1139269279130226   13   13   10    4
 0.4352996554482769   13   13   10   10
 -0.1139269279130227   13   13   11    5
 0.435299655448277   13   13   11   11
 0.07180511662943585   13   13   12    1
 0.08232713538849017   13   13   12    3
 0.002693657396366551   13   13   12    9
 0.4458233768638777   13   13   12   12
 -0.0762189593569903   13   13   13    2
 -0.09724446281329081   13   13   13    8
 0.5540064301747167   13   13   13   13
 0.01895215055708309   14    1    5    2
 0.02092969914255248   14    1    6    1
 0.006264456919742868   14    1    6    3
 -0.01627165792241555   14    1    8    5
 -0.002054875436777545   14    1    9    6
 -0.01363885923319822   14    1   11    2
 0.01181823988296301   14    1   11    8
 0.01154023403961435   14    1   12    6
 0.009276916110349517   14    1   13    5
 -0.007709747937964887   14    1   13   11